+ 0.5 0 1 cbr 512 ------- 2 0.0 2.0 0 0
- 0.5 0 1 cbr 512 ------- 2 0.0 2.0 0 0
+ 0.505 0 1 cbr 512 ------- 2 0.0 2.0 1 1
+ 0.51 0 1 cbr 512 ------- 2 0.0 2.0 2 2
- 0.51024 0 1 cbr 512 ------- 2 0.0 2.0 1 1
+ 0.515 0 1 cbr 512 ------- 2 0.0 2.0 3 3
+ 0.52 0 1 cbr 512 ------- 2 0.0 2.0 4 4
- 0.52048 0 1 cbr 512 ------- 2 0.0 2.0 2 2
+ 0.525 0 1 cbr 512 ------- 2 0.0 2.0 5 5
+ 0.53 0 1 cbr 512 ------- 2 0.0 2.0 6 6
r 0.53024 0 1 cbr 512 ------- 2 0.0 2.0 0 0
+ 0.53024 1 2 cbr 512 ------- 2 0.0 2.0 0 0
- 0.53024 1 2 cbr 512 ------- 2 0.0 2.0 0 0
- 0.53072 0 1 cbr 512 ------- 2 0.0 2.0 3 3
+ 0.535 0 1 cbr 512 ------- 2 0.0 2.0 7 7
+ 0.54 0 1 cbr 512 ------- 2 0.0 2.0 8 8
r 0.54048 0 1 cbr 512 ------- 2 0.0 2.0 1 1
+ 0.54048 1 2 cbr 512 ------- 2 0.0 2.0 1 1
- 0.54048 1 2 cbr 512 ------- 2 0.0 2.0 1 1
- 0.54096 0 1 cbr 512 ------- 2 0.0 2.0 4 4
+ 0.545 0 1 cbr 512 ------- 2 0.0 2.0 9 9
+ 0.55 0 1 cbr 512 ------- 2 0.0 2.0 10 10
r 0.55072 0 1 cbr 512 ------- 2 0.0 2.0 2 2
+ 0.55072 1 2 cbr 512 ------- 2 0.0 2.0 2 2
- 0.55072 1 2 cbr 512 ------- 2 0.0 2.0 2 2
- 0.5512 0 1 cbr 512 ------- 2 0.0 2.0 5 5
+ 0.555 0 1 cbr 512 ------- 2 0.0 2.0 11 11
+ 0.56 0 1 cbr 512 ------- 2 0.0 2.0 12 12
r 0.56048 1 2 cbr 512 ------- 2 0.0 2.0 0 0
r 0.56096 0 1 cbr 512 ------- 2 0.0 2.0 3 3
+ 0.56096 1 2 cbr 512 ------- 2 0.0 2.0 3 3
- 0.56096 1 2 cbr 512 ------- 2 0.0 2.0 3 3
- 0.56144 0 1 cbr 512 ------- 2 0.0 2.0 6 6
+ 0.565 0 1 cbr 512 ------- 2 0.0 2.0 13 13
+ 0.57 0 1 cbr 512 ------- 2 0.0 2.0 14 14
r 0.57072 1 2 cbr 512 ------- 2 0.0 2.0 1 1
r 0.5712 0 1 cbr 512 ------- 2 0.0 2.0 4 4
+ 0.5712 1 2 cbr 512 ------- 2 0.0 2.0 4 4
- 0.5712 1 2 cbr 512 ------- 2 0.0 2.0 4 4
- 0.57168 0 1 cbr 512 ------- 2 0.0 2.0 7 7
+ 0.575 0 1 cbr 512 ------- 2 0.0 2.0 15 15
+ 0.58 0 1 cbr 512 ------- 2 0.0 2.0 16 16
r 0.58096 1 2 cbr 512 ------- 2 0.0 2.0 2 2
r 0.58144 0 1 cbr 512 ------- 2 0.0 2.0 5 5
+ 0.58144 1 2 cbr 512 ------- 2 0.0 2.0 5 5
- 0.58144 1 2 cbr 512 ------- 2 0.0 2.0 5 5
- 0.58192 0 1 cbr 512 ------- 2 0.0 2.0 8 8
+ 0.585 0 1 cbr 512 ------- 2 0.0 2.0 17 17
+ 0.59 0 1 cbr 512 ------- 2 0.0 2.0 18 18
d 0.59 0 1 cbr 512 ------- 2 0.0 2.0 18 18
r 0.5912 1 2 cbr 512 ------- 2 0.0 2.0 3 3
r 0.59168 0 1 cbr 512 ------- 2 0.0 2.0 6 6
+ 0.59168 1 2 cbr 512 ------- 2 0.0 2.0 6 6
- 0.59168 1 2 cbr 512 ------- 2 0.0 2.0 6 6
- 0.59216 0 1 cbr 512 ------- 2 0.0 2.0 9 9
+ 0.595 0 1 cbr 512 ------- 2 0.0 2.0 19 19
+ 0.6 0 1 cbr 512 ------- 2 0.0 2.0 20 20
d 0.6 0 1 cbr 512 ------- 2 0.0 2.0 20 20
r 0.60144 1 2 cbr 512 ------- 2 0.0 2.0 4 4
r 0.60192 0 1 cbr 512 ------- 2 0.0 2.0 7 7
+ 0.60192 1 2 cbr 512 ------- 2 0.0 2.0 7 7
- 0.60192 1 2 cbr 512 ------- 2 0.0 2.0 7 7
- 0.6024 0 1 cbr 512 ------- 2 0.0 2.0 10 10
+ 0.605 0 1 cbr 512 ------- 2 0.0 2.0 21 21
+ 0.61 0 1 cbr 512 ------- 2 0.0 2.0 22 22
d 0.61 0 1 cbr 512 ------- 2 0.0 2.0 22 22
r 0.61168 1 2 cbr 512 ------- 2 0.0 2.0 5 5
r 0.61216 0 1 cbr 512 ------- 2 0.0 2.0 8 8
+ 0.61216 1 2 cbr 512 ------- 2 0.0 2.0 8 8
- 0.61216 1 2 cbr 512 ------- 2 0.0 2.0 8 8
- 0.61264 0 1 cbr 512 ------- 2 0.0 2.0 11 11
+ 0.615 0 1 cbr 512 ------- 2 0.0 2.0 23 23
+ 0.62 0 1 cbr 512 ------- 2 0.0 2.0 24 24
d 0.62 0 1 cbr 512 ------- 2 0.0 2.0 24 24
r 0.62192 1 2 cbr 512 ------- 2 0.0 2.0 6 6
r 0.6224 0 1 cbr 512 ------- 2 0.0 2.0 9 9
+ 0.6224 1 2 cbr 512 ------- 2 0.0 2.0 9 9
- 0.6224 1 2 cbr 512 ------- 2 0.0 2.0 9 9
- 0.62288 0 1 cbr 512 ------- 2 0.0 2.0 12 12
+ 0.625 0 1 cbr 512 ------- 2 0.0 2.0 25 25
+ 0.63 0 1 cbr 512 ------- 2 0.0 2.0 26 26
d 0.63 0 1 cbr 512 ------- 2 0.0 2.0 26 26
r 0.63216 1 2 cbr 512 ------- 2 0.0 2.0 7 7
r 0.63264 0 1 cbr 512 ------- 2 0.0 2.0 10 10
+ 0.63264 1 2 cbr 512 ------- 2 0.0 2.0 10 10
- 0.63264 1 2 cbr 512 ------- 2 0.0 2.0 10 10
- 0.63312 0 1 cbr 512 ------- 2 0.0 2.0 13 13
+ 0.635 0 1 cbr 512 ------- 2 0.0 2.0 27 27
+ 0.64 0 1 cbr 512 ------- 2 0.0 2.0 28 28
d 0.64 0 1 cbr 512 ------- 2 0.0 2.0 28 28
r 0.6424 1 2 cbr 512 ------- 2 0.0 2.0 8 8
r 0.64288 0 1 cbr 512 ------- 2 0.0 2.0 11 11
+ 0.64288 1 2 cbr 512 ------- 2 0.0 2.0 11 11
- 0.64288 1 2 cbr 512 ------- 2 0.0 2.0 11 11
- 0.64336 0 1 cbr 512 ------- 2 0.0 2.0 14 14
+ 0.645 0 1 cbr 512 ------- 2 0.0 2.0 29 29
+ 0.65 0 1 cbr 512 ------- 2 0.0 2.0 30 30
d 0.65 0 1 cbr 512 ------- 2 0.0 2.0 30 30
r 0.65264 1 2 cbr 512 ------- 2 0.0 2.0 9 9
r 0.65312 0 1 cbr 512 ------- 2 0.0 2.0 12 12
+ 0.65312 1 2 cbr 512 ------- 2 0.0 2.0 12 12
- 0.65312 1 2 cbr 512 ------- 2 0.0 2.0 12 12
- 0.6536 0 1 cbr 512 ------- 2 0.0 2.0 15 15
+ 0.655 0 1 cbr 512 ------- 2 0.0 2.0 31 31
+ 0.66 0 1 cbr 512 ------- 2 0.0 2.0 32 32
d 0.66 0 1 cbr 512 ------- 2 0.0 2.0 32 32
r 0.66288 1 2 cbr 512 ------- 2 0.0 2.0 10 10
r 0.66336 0 1 cbr 512 ------- 2 0.0 2.0 13 13
+ 0.66336 1 2 cbr 512 ------- 2 0.0 2.0 13 13
- 0.66336 1 2 cbr 512 ------- 2 0.0 2.0 13 13
- 0.66384 0 1 cbr 512 ------- 2 0.0 2.0 16 16
+ 0.665 0 1 cbr 512 ------- 2 0.0 2.0 33 33
+ 0.67 0 1 cbr 512 ------- 2 0.0 2.0 34 34
d 0.67 0 1 cbr 512 ------- 2 0.0 2.0 34 34
r 0.67312 1 2 cbr 512 ------- 2 0.0 2.0 11 11
r 0.6736 0 1 cbr 512 ------- 2 0.0 2.0 14 14
+ 0.6736 1 2 cbr 512 ------- 2 0.0 2.0 14 14
- 0.6736 1 2 cbr 512 ------- 2 0.0 2.0 14 14
- 0.67408 0 1 cbr 512 ------- 2 0.0 2.0 17 17
+ 0.675 0 1 cbr 512 ------- 2 0.0 2.0 35 35
+ 0.68 0 1 cbr 512 ------- 2 0.0 2.0 36 36
d 0.68 0 1 cbr 512 ------- 2 0.0 2.0 36 36
r 0.68336 1 2 cbr 512 ------- 2 0.0 2.0 12 12
r 0.68384 0 1 cbr 512 ------- 2 0.0 2.0 15 15
+ 0.68384 1 2 cbr 512 ------- 2 0.0 2.0 15 15
- 0.68384 1 2 cbr 512 ------- 2 0.0 2.0 15 15
- 0.68432 0 1 cbr 512 ------- 2 0.0 2.0 19 19
+ 0.685 0 1 cbr 512 ------- 2 0.0 2.0 37 37
+ 0.69 0 1 cbr 512 ------- 2 0.0 2.0 38 38
d 0.69 0 1 cbr 512 ------- 2 0.0 2.0 38 38
r 0.6936 1 2 cbr 512 ------- 2 0.0 2.0 13 13
r 0.69408 0 1 cbr 512 ------- 2 0.0 2.0 16 16
+ 0.69408 1 2 cbr 512 ------- 2 0.0 2.0 16 16
- 0.69408 1 2 cbr 512 ------- 2 0.0 2.0 16 16
- 0.69456 0 1 cbr 512 ------- 2 0.0 2.0 21 21
+ 0.695 0 1 cbr 512 ------- 2 0.0 2.0 39 39
+ 0.7 0 1 cbr 512 ------- 2 0.0 2.0 40 40
d 0.7 0 1 cbr 512 ------- 2 0.0 2.0 40 40
r 0.70384 1 2 cbr 512 ------- 2 0.0 2.0 14 14
r 0.70432 0 1 cbr 512 ------- 2 0.0 2.0 17 17
+ 0.70432 1 2 cbr 512 ------- 2 0.0 2.0 17 17
- 0.70432 1 2 cbr 512 ------- 2 0.0 2.0 17 17
- 0.7048 0 1 cbr 512 ------- 2 0.0 2.0 23 23
+ 0.705 0 1 cbr 512 ------- 2 0.0 2.0 41 41
+ 0.71 0 1 cbr 512 ------- 2 0.0 2.0 42 42
d 0.71 0 1 cbr 512 ------- 2 0.0 2.0 42 42
r 0.71408 1 2 cbr 512 ------- 2 0.0 2.0 15 15
r 0.71456 0 1 cbr 512 ------- 2 0.0 2.0 19 19
+ 0.71456 1 2 cbr 512 ------- 2 0.0 2.0 19 19
- 0.71456 1 2 cbr 512 ------- 2 0.0 2.0 19 19
+ 0.715 0 1 cbr 512 ------- 2 0.0 2.0 43 43
d 0.715 0 1 cbr 512 ------- 2 0.0 2.0 43 43
- 0.71504 0 1 cbr 512 ------- 2 0.0 2.0 25 25
+ 0.72 0 1 cbr 512 ------- 2 0.0 2.0 44 44
r 0.72432 1 2 cbr 512 ------- 2 0.0 2.0 16 16
r 0.7248 0 1 cbr 512 ------- 2 0.0 2.0 21 21
+ 0.7248 1 2 cbr 512 ------- 2 0.0 2.0 21 21
- 0.7248 1 2 cbr 512 ------- 2 0.0 2.0 21 21
+ 0.725 0 1 cbr 512 ------- 2 0.0 2.0 45 45
d 0.725 0 1 cbr 512 ------- 2 0.0 2.0 45 45
- 0.72528 0 1 cbr 512 ------- 2 0.0 2.0 27 27
+ 0.73 0 1 cbr 512 ------- 2 0.0 2.0 46 46
r 0.73456 1 2 cbr 512 ------- 2 0.0 2.0 17 17
+ 0.735 0 1 cbr 512 ------- 2 0.0 2.0 47 47
d 0.735 0 1 cbr 512 ------- 2 0.0 2.0 47 47
r 0.73504 0 1 cbr 512 ------- 2 0.0 2.0 23 23
+ 0.73504 1 2 cbr 512 ------- 2 0.0 2.0 23 23
- 0.73504 1 2 cbr 512 ------- 2 0.0 2.0 23 23
- 0.73552 0 1 cbr 512 ------- 2 0.0 2.0 29 29
+ 0.74 0 1 cbr 512 ------- 2 0.0 2.0 48 48
r 0.7448 1 2 cbr 512 ------- 2 0.0 2.0 19 19
+ 0.745 0 1 cbr 512 ------- 2 0.0 2.0 49 49
d 0.745 0 1 cbr 512 ------- 2 0.0 2.0 49 49
r 0.74528 0 1 cbr 512 ------- 2 0.0 2.0 25 25
+ 0.74528 1 2 cbr 512 ------- 2 0.0 2.0 25 25
- 0.74528 1 2 cbr 512 ------- 2 0.0 2.0 25 25
- 0.74576 0 1 cbr 512 ------- 2 0.0 2.0 31 31
+ 0.75 0 1 cbr 512 ------- 2 0.0 2.0 50 50
+ 0.755 0 1 cbr 512 ------- 2 0.0 2.0 51 51
d 0.755 0 1 cbr 512 ------- 2 0.0 2.0 51 51
r 0.75504 1 2 cbr 512 ------- 2 0.0 2.0 21 21
r 0.75552 0 1 cbr 512 ------- 2 0.0 2.0 27 27
+ 0.75552 1 2 cbr 512 ------- 2 0.0 2.0 27 27
- 0.75552 1 2 cbr 512 ------- 2 0.0 2.0 27 27
- 0.756 0 1 cbr 512 ------- 2 0.0 2.0 33 33
+ 0.76 0 1 cbr 512 ------- 2 0.0 2.0 52 52
+ 0.765 0 1 cbr 512 ------- 2 0.0 2.0 53 53
d 0.765 0 1 cbr 512 ------- 2 0.0 2.0 53 53
r 0.76528 1 2 cbr 512 ------- 2 0.0 2.0 23 23
r 0.76576 0 1 cbr 512 ------- 2 0.0 2.0 29 29
+ 0.76576 1 2 cbr 512 ------- 2 0.0 2.0 29 29
- 0.76576 1 2 cbr 512 ------- 2 0.0 2.0 29 29
- 0.76624 0 1 cbr 512 ------- 2 0.0 2.0 35 35
+ 0.77 0 1 cbr 512 ------- 2 0.0 2.0 54 54
+ 0.775 0 1 cbr 512 ------- 2 0.0 2.0 55 55
d 0.775 0 1 cbr 512 ------- 2 0.0 2.0 55 55
r 0.77552 1 2 cbr 512 ------- 2 0.0 2.0 25 25
r 0.776 0 1 cbr 512 ------- 2 0.0 2.0 31 31
+ 0.776 1 2 cbr 512 ------- 2 0.0 2.0 31 31
- 0.776 1 2 cbr 512 ------- 2 0.0 2.0 31 31
- 0.77648 0 1 cbr 512 ------- 2 0.0 2.0 37 37
+ 0.78 0 1 cbr 512 ------- 2 0.0 2.0 56 56
+ 0.785 0 1 cbr 512 ------- 2 0.0 2.0 57 57
d 0.785 0 1 cbr 512 ------- 2 0.0 2.0 57 57
r 0.78576 1 2 cbr 512 ------- 2 0.0 2.0 27 27
r 0.78624 0 1 cbr 512 ------- 2 0.0 2.0 33 33
+ 0.78624 1 2 cbr 512 ------- 2 0.0 2.0 33 33
- 0.78624 1 2 cbr 512 ------- 2 0.0 2.0 33 33
- 0.78672 0 1 cbr 512 ------- 2 0.0 2.0 39 39
+ 0.79 0 1 cbr 512 ------- 2 0.0 2.0 58 58
+ 0.795 0 1 cbr 512 ------- 2 0.0 2.0 59 59
d 0.795 0 1 cbr 512 ------- 2 0.0 2.0 59 59
r 0.796 1 2 cbr 512 ------- 2 0.0 2.0 29 29
r 0.79648 0 1 cbr 512 ------- 2 0.0 2.0 35 35
+ 0.79648 1 2 cbr 512 ------- 2 0.0 2.0 35 35
- 0.79648 1 2 cbr 512 ------- 2 0.0 2.0 35 35
- 0.79696 0 1 cbr 512 ------- 2 0.0 2.0 41 41
+ 0.8 0 1 cbr 512 ------- 2 0.0 2.0 60 60
+ 0.805 0 1 cbr 512 ------- 2 0.0 2.0 61 61
d 0.805 0 1 cbr 512 ------- 2 0.0 2.0 61 61
r 0.80624 1 2 cbr 512 ------- 2 0.0 2.0 31 31
r 0.80672 0 1 cbr 512 ------- 2 0.0 2.0 37 37
+ 0.80672 1 2 cbr 512 ------- 2 0.0 2.0 37 37
- 0.80672 1 2 cbr 512 ------- 2 0.0 2.0 37 37
- 0.8072 0 1 cbr 512 ------- 2 0.0 2.0 44 44
+ 0.81 0 1 cbr 512 ------- 2 0.0 2.0 62 62
+ 0.815 0 1 cbr 512 ------- 2 0.0 2.0 63 63
d 0.815 0 1 cbr 512 ------- 2 0.0 2.0 63 63
r 0.81648 1 2 cbr 512 ------- 2 0.0 2.0 33 33
r 0.81696 0 1 cbr 512 ------- 2 0.0 2.0 39 39
+ 0.81696 1 2 cbr 512 ------- 2 0.0 2.0 39 39
- 0.81696 1 2 cbr 512 ------- 2 0.0 2.0 39 39
- 0.81744 0 1 cbr 512 ------- 2 0.0 2.0 46 46
+ 0.82 0 1 cbr 512 ------- 2 0.0 2.0 64 64
+ 0.825 0 1 cbr 512 ------- 2 0.0 2.0 65 65
d 0.825 0 1 cbr 512 ------- 2 0.0 2.0 65 65
r 0.82672 1 2 cbr 512 ------- 2 0.0 2.0 35 35
r 0.8272 0 1 cbr 512 ------- 2 0.0 2.0 41 41
+ 0.8272 1 2 cbr 512 ------- 2 0.0 2.0 41 41
- 0.8272 1 2 cbr 512 ------- 2 0.0 2.0 41 41
- 0.82768 0 1 cbr 512 ------- 2 0.0 2.0 48 48
+ 0.83 0 1 cbr 512 ------- 2 0.0 2.0 66 66
+ 0.835 0 1 cbr 512 ------- 2 0.0 2.0 67 67
d 0.835 0 1 cbr 512 ------- 2 0.0 2.0 67 67
r 0.83696 1 2 cbr 512 ------- 2 0.0 2.0 37 37
r 0.83744 0 1 cbr 512 ------- 2 0.0 2.0 44 44
+ 0.83744 1 2 cbr 512 ------- 2 0.0 2.0 44 44
- 0.83744 1 2 cbr 512 ------- 2 0.0 2.0 44 44
- 0.83792 0 1 cbr 512 ------- 2 0.0 2.0 50 50
+ 0.84 0 1 cbr 512 ------- 2 0.0 2.0 68 68
+ 0.845 0 1 cbr 512 ------- 2 0.0 2.0 69 69
d 0.845 0 1 cbr 512 ------- 2 0.0 2.0 69 69
r 0.8472 1 2 cbr 512 ------- 2 0.0 2.0 39 39
r 0.84768 0 1 cbr 512 ------- 2 0.0 2.0 46 46
+ 0.84768 1 2 cbr 512 ------- 2 0.0 2.0 46 46
- 0.84768 1 2 cbr 512 ------- 2 0.0 2.0 46 46
- 0.84816 0 1 cbr 512 ------- 2 0.0 2.0 52 52
+ 0.85 0 1 cbr 512 ------- 2 0.0 2.0 70 70
+ 0.855 0 1 cbr 512 ------- 2 0.0 2.0 71 71
d 0.855 0 1 cbr 512 ------- 2 0.0 2.0 71 71
r 0.85744 1 2 cbr 512 ------- 2 0.0 2.0 41 41
r 0.85792 0 1 cbr 512 ------- 2 0.0 2.0 48 48
+ 0.85792 1 2 cbr 512 ------- 2 0.0 2.0 48 48
- 0.85792 1 2 cbr 512 ------- 2 0.0 2.0 48 48
- 0.8584 0 1 cbr 512 ------- 2 0.0 2.0 54 54
+ 0.86 0 1 cbr 512 ------- 2 0.0 2.0 72 72
+ 0.865 0 1 cbr 512 ------- 2 0.0 2.0 73 73
d 0.865 0 1 cbr 512 ------- 2 0.0 2.0 73 73
r 0.86768 1 2 cbr 512 ------- 2 0.0 2.0 44 44
r 0.86816 0 1 cbr 512 ------- 2 0.0 2.0 50 50
+ 0.86816 1 2 cbr 512 ------- 2 0.0 2.0 50 50
- 0.86816 1 2 cbr 512 ------- 2 0.0 2.0 50 50
- 0.86864 0 1 cbr 512 ------- 2 0.0 2.0 56 56
+ 0.87 0 1 cbr 512 ------- 2 0.0 2.0 74 74
+ 0.875 0 1 cbr 512 ------- 2 0.0 2.0 75 75
d 0.875 0 1 cbr 512 ------- 2 0.0 2.0 75 75
r 0.87792 1 2 cbr 512 ------- 2 0.0 2.0 46 46
r 0.8784 0 1 cbr 512 ------- 2 0.0 2.0 52 52
+ 0.8784 1 2 cbr 512 ------- 2 0.0 2.0 52 52
- 0.8784 1 2 cbr 512 ------- 2 0.0 2.0 52 52
- 0.87888 0 1 cbr 512 ------- 2 0.0 2.0 58 58
+ 0.88 0 1 cbr 512 ------- 2 0.0 2.0 76 76
+ 0.885 0 1 cbr 512 ------- 2 0.0 2.0 77 77
d 0.885 0 1 cbr 512 ------- 2 0.0 2.0 77 77
r 0.88816 1 2 cbr 512 ------- 2 0.0 2.0 48 48
r 0.88864 0 1 cbr 512 ------- 2 0.0 2.0 54 54
+ 0.88864 1 2 cbr 512 ------- 2 0.0 2.0 54 54
- 0.88864 1 2 cbr 512 ------- 2 0.0 2.0 54 54
- 0.88912 0 1 cbr 512 ------- 2 0.0 2.0 60 60
+ 0.89 0 1 cbr 512 ------- 2 0.0 2.0 78 78
+ 0.895 0 1 cbr 512 ------- 2 0.0 2.0 79 79
d 0.895 0 1 cbr 512 ------- 2 0.0 2.0 79 79
r 0.8984 1 2 cbr 512 ------- 2 0.0 2.0 50 50
r 0.89888 0 1 cbr 512 ------- 2 0.0 2.0 56 56
+ 0.89888 1 2 cbr 512 ------- 2 0.0 2.0 56 56
- 0.89888 1 2 cbr 512 ------- 2 0.0 2.0 56 56
- 0.89936 0 1 cbr 512 ------- 2 0.0 2.0 62 62
+ 0.9 0 1 cbr 512 ------- 2 0.0 2.0 80 80
+ 0.905 0 1 cbr 512 ------- 2 0.0 2.0 81 81
d 0.905 0 1 cbr 512 ------- 2 0.0 2.0 81 81
r 0.90864 1 2 cbr 512 ------- 2 0.0 2.0 52 52
r 0.90912 0 1 cbr 512 ------- 2 0.0 2.0 58 58
+ 0.90912 1 2 cbr 512 ------- 2 0.0 2.0 58 58
- 0.90912 1 2 cbr 512 ------- 2 0.0 2.0 58 58
- 0.9096 0 1 cbr 512 ------- 2 0.0 2.0 64 64
+ 0.91 0 1 cbr 512 ------- 2 0.0 2.0 82 82
+ 0.915 0 1 cbr 512 ------- 2 0.0 2.0 83 83
d 0.915 0 1 cbr 512 ------- 2 0.0 2.0 83 83
r 0.91888 1 2 cbr 512 ------- 2 0.0 2.0 54 54
r 0.91936 0 1 cbr 512 ------- 2 0.0 2.0 60 60
+ 0.91936 1 2 cbr 512 ------- 2 0.0 2.0 60 60
- 0.91936 1 2 cbr 512 ------- 2 0.0 2.0 60 60
- 0.91984 0 1 cbr 512 ------- 2 0.0 2.0 66 66
+ 0.92 0 1 cbr 512 ------- 2 0.0 2.0 84 84
+ 0.925 0 1 cbr 512 ------- 2 0.0 2.0 85 85
d 0.925 0 1 cbr 512 ------- 2 0.0 2.0 85 85
r 0.92912 1 2 cbr 512 ------- 2 0.0 2.0 56 56
r 0.9296 0 1 cbr 512 ------- 2 0.0 2.0 62 62
+ 0.9296 1 2 cbr 512 ------- 2 0.0 2.0 62 62
- 0.9296 1 2 cbr 512 ------- 2 0.0 2.0 62 62
+ 0.93 0 1 cbr 512 ------- 2 0.0 2.0 86 86
d 0.93 0 1 cbr 512 ------- 2 0.0 2.0 86 86
- 0.93008 0 1 cbr 512 ------- 2 0.0 2.0 68 68
+ 0.935 0 1 cbr 512 ------- 2 0.0 2.0 87 87
r 0.93936 1 2 cbr 512 ------- 2 0.0 2.0 58 58
r 0.93984 0 1 cbr 512 ------- 2 0.0 2.0 64 64
+ 0.93984 1 2 cbr 512 ------- 2 0.0 2.0 64 64
- 0.93984 1 2 cbr 512 ------- 2 0.0 2.0 64 64
+ 0.94 0 1 cbr 512 ------- 2 0.0 2.0 88 88
d 0.94 0 1 cbr 512 ------- 2 0.0 2.0 88 88
- 0.94032 0 1 cbr 512 ------- 2 0.0 2.0 70 70
+ 0.945 0 1 cbr 512 ------- 2 0.0 2.0 89 89
r 0.9496 1 2 cbr 512 ------- 2 0.0 2.0 60 60
+ 0.95 0 1 cbr 512 ------- 2 0.0 2.0 90 90
d 0.95 0 1 cbr 512 ------- 2 0.0 2.0 90 90
r 0.95008 0 1 cbr 512 ------- 2 0.0 2.0 66 66
+ 0.95008 1 2 cbr 512 ------- 2 0.0 2.0 66 66
- 0.95008 1 2 cbr 512 ------- 2 0.0 2.0 66 66
- 0.95056 0 1 cbr 512 ------- 2 0.0 2.0 72 72
+ 0.955 0 1 cbr 512 ------- 2 0.0 2.0 91 91
r 0.95984 1 2 cbr 512 ------- 2 0.0 2.0 62 62
+ 0.96 0 1 cbr 512 ------- 2 0.0 2.0 92 92
d 0.96 0 1 cbr 512 ------- 2 0.0 2.0 92 92
r 0.96032 0 1 cbr 512 ------- 2 0.0 2.0 68 68
+ 0.96032 1 2 cbr 512 ------- 2 0.0 2.0 68 68
- 0.96032 1 2 cbr 512 ------- 2 0.0 2.0 68 68
- 0.9608 0 1 cbr 512 ------- 2 0.0 2.0 74 74
+ 0.965 0 1 cbr 512 ------- 2 0.0 2.0 93 93
+ 0.97 0 1 cbr 512 ------- 2 0.0 2.0 94 94
d 0.97 0 1 cbr 512 ------- 2 0.0 2.0 94 94
r 0.97008 1 2 cbr 512 ------- 2 0.0 2.0 64 64
r 0.97056 0 1 cbr 512 ------- 2 0.0 2.0 70 70
+ 0.97056 1 2 cbr 512 ------- 2 0.0 2.0 70 70
- 0.97056 1 2 cbr 512 ------- 2 0.0 2.0 70 70
- 0.97104 0 1 cbr 512 ------- 2 0.0 2.0 76 76
+ 0.975 0 1 cbr 512 ------- 2 0.0 2.0 95 95
+ 0.98 0 1 cbr 512 ------- 2 0.0 2.0 96 96
d 0.98 0 1 cbr 512 ------- 2 0.0 2.0 96 96
r 0.98032 1 2 cbr 512 ------- 2 0.0 2.0 66 66
r 0.9808 0 1 cbr 512 ------- 2 0.0 2.0 72 72
+ 0.9808 1 2 cbr 512 ------- 2 0.0 2.0 72 72
- 0.9808 1 2 cbr 512 ------- 2 0.0 2.0 72 72
- 0.98128 0 1 cbr 512 ------- 2 0.0 2.0 78 78
+ 0.985 0 1 cbr 512 ------- 2 0.0 2.0 97 97
+ 0.99 0 1 cbr 512 ------- 2 0.0 2.0 98 98
d 0.99 0 1 cbr 512 ------- 2 0.0 2.0 98 98
r 0.99056 1 2 cbr 512 ------- 2 0.0 2.0 68 68
r 0.99104 0 1 cbr 512 ------- 2 0.0 2.0 74 74
+ 0.99104 1 2 cbr 512 ------- 2 0.0 2.0 74 74
- 0.99104 1 2 cbr 512 ------- 2 0.0 2.0 74 74
- 0.99152 0 1 cbr 512 ------- 2 0.0 2.0 80 80
+ 0.995 0 1 cbr 512 ------- 2 0.0 2.0 99 99
+ 1 0 1 cbr 512 ------- 2 0.0 2.0 100 100
d 1 0 1 cbr 512 ------- 2 0.0 2.0 100 100
r 1.0008 1 2 cbr 512 ------- 2 0.0 2.0 70 70
r 1.00128 0 1 cbr 512 ------- 2 0.0 2.0 76 76
+ 1.00128 1 2 cbr 512 ------- 2 0.0 2.0 76 76
- 1.00128 1 2 cbr 512 ------- 2 0.0 2.0 76 76
- 1.00176 0 1 cbr 512 ------- 2 0.0 2.0 82 82
+ 1.005 0 1 cbr 512 ------- 2 0.0 2.0 101 101
+ 1.01 0 1 cbr 512 ------- 2 0.0 2.0 102 102
d 1.01 0 1 cbr 512 ------- 2 0.0 2.0 102 102
r 1.01104 1 2 cbr 512 ------- 2 0.0 2.0 72 72
r 1.01152 0 1 cbr 512 ------- 2 0.0 2.0 78 78
+ 1.01152 1 2 cbr 512 ------- 2 0.0 2.0 78 78
- 1.01152 1 2 cbr 512 ------- 2 0.0 2.0 78 78
- 1.012 0 1 cbr 512 ------- 2 0.0 2.0 84 84
+ 1.015 0 1 cbr 512 ------- 2 0.0 2.0 103 103
+ 1.02 0 1 cbr 512 ------- 2 0.0 2.0 104 104
d 1.02 0 1 cbr 512 ------- 2 0.0 2.0 104 104
r 1.02128 1 2 cbr 512 ------- 2 0.0 2.0 74 74
r 1.02176 0 1 cbr 512 ------- 2 0.0 2.0 80 80
+ 1.02176 1 2 cbr 512 ------- 2 0.0 2.0 80 80
- 1.02176 1 2 cbr 512 ------- 2 0.0 2.0 80 80
- 1.02224 0 1 cbr 512 ------- 2 0.0 2.0 87 87
+ 1.025 0 1 cbr 512 ------- 2 0.0 2.0 105 105
+ 1.03 0 1 cbr 512 ------- 2 0.0 2.0 106 106
d 1.03 0 1 cbr 512 ------- 2 0.0 2.0 106 106
r 1.03152 1 2 cbr 512 ------- 2 0.0 2.0 76 76
r 1.032 0 1 cbr 512 ------- 2 0.0 2.0 82 82
+ 1.032 1 2 cbr 512 ------- 2 0.0 2.0 82 82
- 1.032 1 2 cbr 512 ------- 2 0.0 2.0 82 82
- 1.03248 0 1 cbr 512 ------- 2 0.0 2.0 89 89
+ 1.035 0 1 cbr 512 ------- 2 0.0 2.0 107 107
+ 1.04 0 1 cbr 512 ------- 2 0.0 2.0 108 108
d 1.04 0 1 cbr 512 ------- 2 0.0 2.0 108 108
r 1.04176 1 2 cbr 512 ------- 2 0.0 2.0 78 78
r 1.04224 0 1 cbr 512 ------- 2 0.0 2.0 84 84
+ 1.04224 1 2 cbr 512 ------- 2 0.0 2.0 84 84
- 1.04224 1 2 cbr 512 ------- 2 0.0 2.0 84 84
- 1.04272 0 1 cbr 512 ------- 2 0.0 2.0 91 91
+ 1.045 0 1 cbr 512 ------- 2 0.0 2.0 109 109
+ 1.05 0 1 cbr 512 ------- 2 0.0 2.0 110 110
d 1.05 0 1 cbr 512 ------- 2 0.0 2.0 110 110
r 1.052 1 2 cbr 512 ------- 2 0.0 2.0 80 80
r 1.05248 0 1 cbr 512 ------- 2 0.0 2.0 87 87
+ 1.05248 1 2 cbr 512 ------- 2 0.0 2.0 87 87
- 1.05248 1 2 cbr 512 ------- 2 0.0 2.0 87 87
- 1.05296 0 1 cbr 512 ------- 2 0.0 2.0 93 93
+ 1.055 0 1 cbr 512 ------- 2 0.0 2.0 111 111
+ 1.06 0 1 cbr 512 ------- 2 0.0 2.0 112 112
d 1.06 0 1 cbr 512 ------- 2 0.0 2.0 112 112
r 1.06224 1 2 cbr 512 ------- 2 0.0 2.0 82 82
r 1.06272 0 1 cbr 512 ------- 2 0.0 2.0 89 89
+ 1.06272 1 2 cbr 512 ------- 2 0.0 2.0 89 89
- 1.06272 1 2 cbr 512 ------- 2 0.0 2.0 89 89
- 1.0632 0 1 cbr 512 ------- 2 0.0 2.0 95 95
+ 1.065 0 1 cbr 512 ------- 2 0.0 2.0 113 113
+ 1.07 0 1 cbr 512 ------- 2 0.0 2.0 114 114
d 1.07 0 1 cbr 512 ------- 2 0.0 2.0 114 114
r 1.07248 1 2 cbr 512 ------- 2 0.0 2.0 84 84
r 1.07296 0 1 cbr 512 ------- 2 0.0 2.0 91 91
+ 1.07296 1 2 cbr 512 ------- 2 0.0 2.0 91 91
- 1.07296 1 2 cbr 512 ------- 2 0.0 2.0 91 91
- 1.07344 0 1 cbr 512 ------- 2 0.0 2.0 97 97
+ 1.075 0 1 cbr 512 ------- 2 0.0 2.0 115 115
+ 1.08 0 1 cbr 512 ------- 2 0.0 2.0 116 116
d 1.08 0 1 cbr 512 ------- 2 0.0 2.0 116 116
r 1.08272 1 2 cbr 512 ------- 2 0.0 2.0 87 87
r 1.0832 0 1 cbr 512 ------- 2 0.0 2.0 93 93
+ 1.0832 1 2 cbr 512 ------- 2 0.0 2.0 93 93
- 1.0832 1 2 cbr 512 ------- 2 0.0 2.0 93 93
- 1.08368 0 1 cbr 512 ------- 2 0.0 2.0 99 99
+ 1.085 0 1 cbr 512 ------- 2 0.0 2.0 117 117
+ 1.09 0 1 cbr 512 ------- 2 0.0 2.0 118 118
d 1.09 0 1 cbr 512 ------- 2 0.0 2.0 118 118
r 1.09296 1 2 cbr 512 ------- 2 0.0 2.0 89 89
r 1.09344 0 1 cbr 512 ------- 2 0.0 2.0 95 95
+ 1.09344 1 2 cbr 512 ------- 2 0.0 2.0 95 95
- 1.09344 1 2 cbr 512 ------- 2 0.0 2.0 95 95
- 1.09392 0 1 cbr 512 ------- 2 0.0 2.0 101 101
+ 1.095 0 1 cbr 512 ------- 2 0.0 2.0 119 119
+ 1.1 0 1 cbr 512 ------- 2 0.0 2.0 120 120
d 1.1 0 1 cbr 512 ------- 2 0.0 2.0 120 120
r 1.1032 1 2 cbr 512 ------- 2 0.0 2.0 91 91
r 1.10368 0 1 cbr 512 ------- 2 0.0 2.0 97 97
+ 1.10368 1 2 cbr 512 ------- 2 0.0 2.0 97 97
- 1.10368 1 2 cbr 512 ------- 2 0.0 2.0 97 97
- 1.10416 0 1 cbr 512 ------- 2 0.0 2.0 103 103
+ 1.105 0 1 cbr 512 ------- 2 0.0 2.0 121 121
+ 1.11 0 1 cbr 512 ------- 2 0.0 2.0 122 122
d 1.11 0 1 cbr 512 ------- 2 0.0 2.0 122 122
r 1.11344 1 2 cbr 512 ------- 2 0.0 2.0 93 93
r 1.11392 0 1 cbr 512 ------- 2 0.0 2.0 99 99
+ 1.11392 1 2 cbr 512 ------- 2 0.0 2.0 99 99
- 1.11392 1 2 cbr 512 ------- 2 0.0 2.0 99 99
- 1.1144 0 1 cbr 512 ------- 2 0.0 2.0 105 105
+ 1.115 0 1 cbr 512 ------- 2 0.0 2.0 123 123
+ 1.12 0 1 cbr 512 ------- 2 0.0 2.0 124 124
d 1.12 0 1 cbr 512 ------- 2 0.0 2.0 124 124
r 1.12368 1 2 cbr 512 ------- 2 0.0 2.0 95 95
r 1.12416 0 1 cbr 512 ------- 2 0.0 2.0 101 101
+ 1.12416 1 2 cbr 512 ------- 2 0.0 2.0 101 101
- 1.12416 1 2 cbr 512 ------- 2 0.0 2.0 101 101
- 1.12464 0 1 cbr 512 ------- 2 0.0 2.0 107 107
+ 1.125 0 1 cbr 512 ------- 2 0.0 2.0 125 125
+ 1.13 0 1 cbr 512 ------- 2 0.0 2.0 126 126
d 1.13 0 1 cbr 512 ------- 2 0.0 2.0 126 126
r 1.13392 1 2 cbr 512 ------- 2 0.0 2.0 97 97
r 1.1344 0 1 cbr 512 ------- 2 0.0 2.0 103 103
+ 1.1344 1 2 cbr 512 ------- 2 0.0 2.0 103 103
- 1.1344 1 2 cbr 512 ------- 2 0.0 2.0 103 103
- 1.13488 0 1 cbr 512 ------- 2 0.0 2.0 109 109
+ 1.135 0 1 cbr 512 ------- 2 0.0 2.0 127 127
+ 1.14 0 1 cbr 512 ------- 2 0.0 2.0 128 128
d 1.14 0 1 cbr 512 ------- 2 0.0 2.0 128 128
r 1.14416 1 2 cbr 512 ------- 2 0.0 2.0 99 99
r 1.14464 0 1 cbr 512 ------- 2 0.0 2.0 105 105
+ 1.14464 1 2 cbr 512 ------- 2 0.0 2.0 105 105
- 1.14464 1 2 cbr 512 ------- 2 0.0 2.0 105 105
+ 1.145 0 1 cbr 512 ------- 2 0.0 2.0 129 129
d 1.145 0 1 cbr 512 ------- 2 0.0 2.0 129 129
- 1.14512 0 1 cbr 512 ------- 2 0.0 2.0 111 111
+ 1.15 0 1 cbr 512 ------- 2 0.0 2.0 130 130
r 1.1544 1 2 cbr 512 ------- 2 0.0 2.0 101 101
r 1.15488 0 1 cbr 512 ------- 2 0.0 2.0 107 107
+ 1.15488 1 2 cbr 512 ------- 2 0.0 2.0 107 107
- 1.15488 1 2 cbr 512 ------- 2 0.0 2.0 107 107
+ 1.155 0 1 cbr 512 ------- 2 0.0 2.0 131 131
d 1.155 0 1 cbr 512 ------- 2 0.0 2.0 131 131
- 1.15536 0 1 cbr 512 ------- 2 0.0 2.0 113 113
+ 1.16 0 1 cbr 512 ------- 2 0.0 2.0 132 132
r 1.16464 1 2 cbr 512 ------- 2 0.0 2.0 103 103
+ 1.165 0 1 cbr 512 ------- 2 0.0 2.0 133 133
d 1.165 0 1 cbr 512 ------- 2 0.0 2.0 133 133
r 1.16512 0 1 cbr 512 ------- 2 0.0 2.0 109 109
+ 1.16512 1 2 cbr 512 ------- 2 0.0 2.0 109 109
- 1.16512 1 2 cbr 512 ------- 2 0.0 2.0 109 109
- 1.1656 0 1 cbr 512 ------- 2 0.0 2.0 115 115
+ 1.17 0 1 cbr 512 ------- 2 0.0 2.0 134 134
r 1.17488 1 2 cbr 512 ------- 2 0.0 2.0 105 105
+ 1.175 0 1 cbr 512 ------- 2 0.0 2.0 135 135
d 1.175 0 1 cbr 512 ------- 2 0.0 2.0 135 135
r 1.17536 0 1 cbr 512 ------- 2 0.0 2.0 111 111
+ 1.17536 1 2 cbr 512 ------- 2 0.0 2.0 111 111
- 1.17536 1 2 cbr 512 ------- 2 0.0 2.0 111 111
- 1.17584 0 1 cbr 512 ------- 2 0.0 2.0 117 117
+ 1.18 0 1 cbr 512 ------- 2 0.0 2.0 136 136
+ 1.185 0 1 cbr 512 ------- 2 0.0 2.0 137 137
d 1.185 0 1 cbr 512 ------- 2 0.0 2.0 137 137
r 1.18512 1 2 cbr 512 ------- 2 0.0 2.0 107 107
r 1.1856 0 1 cbr 512 ------- 2 0.0 2.0 113 113
+ 1.1856 1 2 cbr 512 ------- 2 0.0 2.0 113 113
- 1.1856 1 2 cbr 512 ------- 2 0.0 2.0 113 113
- 1.18608 0 1 cbr 512 ------- 2 0.0 2.0 119 119
+ 1.19 0 1 cbr 512 ------- 2 0.0 2.0 138 138
+ 1.195 0 1 cbr 512 ------- 2 0.0 2.0 139 139
d 1.195 0 1 cbr 512 ------- 2 0.0 2.0 139 139
r 1.19536 1 2 cbr 512 ------- 2 0.0 2.0 109 109
r 1.19584 0 1 cbr 512 ------- 2 0.0 2.0 115 115
+ 1.19584 1 2 cbr 512 ------- 2 0.0 2.0 115 115
- 1.19584 1 2 cbr 512 ------- 2 0.0 2.0 115 115
- 1.19632 0 1 cbr 512 ------- 2 0.0 2.0 121 121
+ 1.2 0 1 cbr 512 ------- 2 0.0 2.0 140 140
+ 1.205 0 1 cbr 512 ------- 2 0.0 2.0 141 141
d 1.205 0 1 cbr 512 ------- 2 0.0 2.0 141 141
r 1.2056 1 2 cbr 512 ------- 2 0.0 2.0 111 111
r 1.20608 0 1 cbr 512 ------- 2 0.0 2.0 117 117
+ 1.20608 1 2 cbr 512 ------- 2 0.0 2.0 117 117
- 1.20608 1 2 cbr 512 ------- 2 0.0 2.0 117 117
- 1.20656 0 1 cbr 512 ------- 2 0.0 2.0 123 123
+ 1.21 0 1 cbr 512 ------- 2 0.0 2.0 142 142
+ 1.215 0 1 cbr 512 ------- 2 0.0 2.0 143 143
d 1.215 0 1 cbr 512 ------- 2 0.0 2.0 143 143
r 1.21584 1 2 cbr 512 ------- 2 0.0 2.0 113 113
r 1.21632 0 1 cbr 512 ------- 2 0.0 2.0 119 119
+ 1.21632 1 2 cbr 512 ------- 2 0.0 2.0 119 119
- 1.21632 1 2 cbr 512 ------- 2 0.0 2.0 119 119
- 1.2168 0 1 cbr 512 ------- 2 0.0 2.0 125 125
+ 1.22 0 1 cbr 512 ------- 2 0.0 2.0 144 144
+ 1.225 0 1 cbr 512 ------- 2 0.0 2.0 145 145
d 1.225 0 1 cbr 512 ------- 2 0.0 2.0 145 145
r 1.22608 1 2 cbr 512 ------- 2 0.0 2.0 115 115
r 1.22656 0 1 cbr 512 ------- 2 0.0 2.0 121 121
+ 1.22656 1 2 cbr 512 ------- 2 0.0 2.0 121 121
- 1.22656 1 2 cbr 512 ------- 2 0.0 2.0 121 121
- 1.22704 0 1 cbr 512 ------- 2 0.0 2.0 127 127
+ 1.23 0 1 cbr 512 ------- 2 0.0 2.0 146 146
+ 1.235 0 1 cbr 512 ------- 2 0.0 2.0 147 147
d 1.235 0 1 cbr 512 ------- 2 0.0 2.0 147 147
r 1.23632 1 2 cbr 512 ------- 2 0.0 2.0 117 117
r 1.2368 0 1 cbr 512 ------- 2 0.0 2.0 123 123
+ 1.2368 1 2 cbr 512 ------- 2 0.0 2.0 123 123
- 1.2368 1 2 cbr 512 ------- 2 0.0 2.0 123 123
- 1.23728 0 1 cbr 512 ------- 2 0.0 2.0 130 130
+ 1.24 0 1 cbr 512 ------- 2 0.0 2.0 148 148
+ 1.245 0 1 cbr 512 ------- 2 0.0 2.0 149 149
d 1.245 0 1 cbr 512 ------- 2 0.0 2.0 149 149
r 1.24656 1 2 cbr 512 ------- 2 0.0 2.0 119 119
r 1.24704 0 1 cbr 512 ------- 2 0.0 2.0 125 125
+ 1.24704 1 2 cbr 512 ------- 2 0.0 2.0 125 125
- 1.24704 1 2 cbr 512 ------- 2 0.0 2.0 125 125
- 1.24752 0 1 cbr 512 ------- 2 0.0 2.0 132 132
+ 1.25 0 1 cbr 512 ------- 2 0.0 2.0 150 150
+ 1.255 0 1 cbr 512 ------- 2 0.0 2.0 151 151
d 1.255 0 1 cbr 512 ------- 2 0.0 2.0 151 151
r 1.2568 1 2 cbr 512 ------- 2 0.0 2.0 121 121
r 1.25728 0 1 cbr 512 ------- 2 0.0 2.0 127 127
+ 1.25728 1 2 cbr 512 ------- 2 0.0 2.0 127 127
- 1.25728 1 2 cbr 512 ------- 2 0.0 2.0 127 127
- 1.25776 0 1 cbr 512 ------- 2 0.0 2.0 134 134
+ 1.26 0 1 cbr 512 ------- 2 0.0 2.0 152 152
+ 1.265 0 1 cbr 512 ------- 2 0.0 2.0 153 153
d 1.265 0 1 cbr 512 ------- 2 0.0 2.0 153 153
r 1.26704 1 2 cbr 512 ------- 2 0.0 2.0 123 123
r 1.26752 0 1 cbr 512 ------- 2 0.0 2.0 130 130
+ 1.26752 1 2 cbr 512 ------- 2 0.0 2.0 130 130
- 1.26752 1 2 cbr 512 ------- 2 0.0 2.0 130 130
- 1.268 0 1 cbr 512 ------- 2 0.0 2.0 136 136
+ 1.27 0 1 cbr 512 ------- 2 0.0 2.0 154 154
+ 1.275 0 1 cbr 512 ------- 2 0.0 2.0 155 155
d 1.275 0 1 cbr 512 ------- 2 0.0 2.0 155 155
r 1.27728 1 2 cbr 512 ------- 2 0.0 2.0 125 125
r 1.27776 0 1 cbr 512 ------- 2 0.0 2.0 132 132
+ 1.27776 1 2 cbr 512 ------- 2 0.0 2.0 132 132
- 1.27776 1 2 cbr 512 ------- 2 0.0 2.0 132 132
- 1.27824 0 1 cbr 512 ------- 2 0.0 2.0 138 138
+ 1.28 0 1 cbr 512 ------- 2 0.0 2.0 156 156
+ 1.285 0 1 cbr 512 ------- 2 0.0 2.0 157 157
d 1.285 0 1 cbr 512 ------- 2 0.0 2.0 157 157
r 1.28752 1 2 cbr 512 ------- 2 0.0 2.0 127 127
r 1.288 0 1 cbr 512 ------- 2 0.0 2.0 134 134
+ 1.288 1 2 cbr 512 ------- 2 0.0 2.0 134 134
- 1.288 1 2 cbr 512 ------- 2 0.0 2.0 134 134
- 1.28848 0 1 cbr 512 ------- 2 0.0 2.0 140 140
+ 1.29 0 1 cbr 512 ------- 2 0.0 2.0 158 158
+ 1.295 0 1 cbr 512 ------- 2 0.0 2.0 159 159
d 1.295 0 1 cbr 512 ------- 2 0.0 2.0 159 159
r 1.29776 1 2 cbr 512 ------- 2 0.0 2.0 130 130
r 1.29824 0 1 cbr 512 ------- 2 0.0 2.0 136 136
+ 1.29824 1 2 cbr 512 ------- 2 0.0 2.0 136 136
- 1.29824 1 2 cbr 512 ------- 2 0.0 2.0 136 136
- 1.29872 0 1 cbr 512 ------- 2 0.0 2.0 142 142
+ 1.3 0 1 cbr 512 ------- 2 0.0 2.0 160 160
+ 1.305 0 1 cbr 512 ------- 2 0.0 2.0 161 161
d 1.305 0 1 cbr 512 ------- 2 0.0 2.0 161 161
r 1.308 1 2 cbr 512 ------- 2 0.0 2.0 132 132
r 1.30848 0 1 cbr 512 ------- 2 0.0 2.0 138 138
+ 1.30848 1 2 cbr 512 ------- 2 0.0 2.0 138 138
- 1.30848 1 2 cbr 512 ------- 2 0.0 2.0 138 138
- 1.30896 0 1 cbr 512 ------- 2 0.0 2.0 144 144
+ 1.31 0 1 cbr 512 ------- 2 0.0 2.0 162 162
+ 1.315 0 1 cbr 512 ------- 2 0.0 2.0 163 163
d 1.315 0 1 cbr 512 ------- 2 0.0 2.0 163 163
r 1.31824 1 2 cbr 512 ------- 2 0.0 2.0 134 134
r 1.31872 0 1 cbr 512 ------- 2 0.0 2.0 140 140
+ 1.31872 1 2 cbr 512 ------- 2 0.0 2.0 140 140
- 1.31872 1 2 cbr 512 ------- 2 0.0 2.0 140 140
- 1.3192 0 1 cbr 512 ------- 2 0.0 2.0 146 146
+ 1.32 0 1 cbr 512 ------- 2 0.0 2.0 164 164
+ 1.325 0 1 cbr 512 ------- 2 0.0 2.0 165 165
d 1.325 0 1 cbr 512 ------- 2 0.0 2.0 165 165
r 1.32848 1 2 cbr 512 ------- 2 0.0 2.0 136 136
r 1.32896 0 1 cbr 512 ------- 2 0.0 2.0 142 142
+ 1.32896 1 2 cbr 512 ------- 2 0.0 2.0 142 142
- 1.32896 1 2 cbr 512 ------- 2 0.0 2.0 142 142
- 1.32944 0 1 cbr 512 ------- 2 0.0 2.0 148 148
+ 1.33 0 1 cbr 512 ------- 2 0.0 2.0 166 166
+ 1.335 0 1 cbr 512 ------- 2 0.0 2.0 167 167
d 1.335 0 1 cbr 512 ------- 2 0.0 2.0 167 167
r 1.33872 1 2 cbr 512 ------- 2 0.0 2.0 138 138
r 1.3392 0 1 cbr 512 ------- 2 0.0 2.0 144 144
+ 1.3392 1 2 cbr 512 ------- 2 0.0 2.0 144 144
- 1.3392 1 2 cbr 512 ------- 2 0.0 2.0 144 144
- 1.33968 0 1 cbr 512 ------- 2 0.0 2.0 150 150
+ 1.34 0 1 cbr 512 ------- 2 0.0 2.0 168 168
+ 1.345 0 1 cbr 512 ------- 2 0.0 2.0 169 169
d 1.345 0 1 cbr 512 ------- 2 0.0 2.0 169 169
r 1.34896 1 2 cbr 512 ------- 2 0.0 2.0 140 140
r 1.34944 0 1 cbr 512 ------- 2 0.0 2.0 146 146
+ 1.34944 1 2 cbr 512 ------- 2 0.0 2.0 146 146
- 1.34944 1 2 cbr 512 ------- 2 0.0 2.0 146 146
- 1.34992 0 1 cbr 512 ------- 2 0.0 2.0 152 152
+ 1.35 0 1 cbr 512 ------- 2 0.0 2.0 170 170
+ 1.355 0 1 cbr 512 ------- 2 0.0 2.0 171 171
d 1.355 0 1 cbr 512 ------- 2 0.0 2.0 171 171
r 1.3592 1 2 cbr 512 ------- 2 0.0 2.0 142 142
r 1.35968 0 1 cbr 512 ------- 2 0.0 2.0 148 148
+ 1.35968 1 2 cbr 512 ------- 2 0.0 2.0 148 148
- 1.35968 1 2 cbr 512 ------- 2 0.0 2.0 148 148