+ 0.5 0 2 tcp 40 ------- 1 0.0 3.0 0 0
- 0.5 0 2 tcp 40 ------- 1 0.0 3.0 0 0
r 0.5108 0 2 tcp 40 ------- 1 0.0 3.0 0 0
+ 0.5108 2 3 tcp 40 ------- 1 0.0 3.0 0 0
- 0.5108 2 3 tcp 40 ------- 1 0.0 3.0 0 0
r 0.5216 2 3 tcp 40 ------- 1 0.0 3.0 0 0
+ 0.5216 3 2 ack 40 ------- 1 3.0 0.0 0 1
- 0.5216 3 2 ack 40 ------- 1 3.0 0.0 0 1
r 0.532667 3 2 ack 40 ------- 1 3.0 0.0 0 1
+ 0.532667 2 0 ack 40 ------- 1 3.0 0.0 0 1
- 0.532667 2 0 ack 40 ------- 1 3.0 0.0 0 1
r 0.543467 2 0 ack 40 ------- 1 3.0 0.0 0 1
+ 0.543467 0 2 tcp 1040 ------- 1 0.0 3.0 1 2
- 0.543467 0 2 tcp 1040 ------- 1 0.0 3.0 1 2
+ 0.543467 0 2 tcp 1040 ------- 1 0.0 3.0 2 3
- 0.564267 0 2 tcp 1040 ------- 1 0.0 3.0 2 3
r 0.574267 0 2 tcp 1040 ------- 1 0.0 3.0 1 2
+ 0.574267 2 3 tcp 1040 ------- 1 0.0 3.0 1 2
- 0.574267 2 3 tcp 1040 ------- 1 0.0 3.0 1 2
r 0.595067 0 2 tcp 1040 ------- 1 0.0 3.0 2 3
+ 0.595067 2 3 tcp 1040 ------- 1 0.0 3.0 2 3
- 0.595067 2 3 tcp 1040 ------- 1 0.0 3.0 2 3
r 0.605067 2 3 tcp 1040 ------- 1 0.0 3.0 1 2
+ 0.605067 3 2 ack 40 ------- 1 3.0 0.0 1 4
- 0.605067 3 2 ack 40 ------- 1 3.0 0.0 1 4
r 0.616133 3 2 ack 40 ------- 1 3.0 0.0 1 4
+ 0.616133 2 0 ack 40 ------- 1 3.0 0.0 1 4
- 0.616133 2 0 ack 40 ------- 1 3.0 0.0 1 4
r 0.625867 2 3 tcp 1040 ------- 1 0.0 3.0 2 3
+ 0.625867 3 2 ack 40 ------- 1 3.0 0.0 2 5
- 0.625867 3 2 ack 40 ------- 1 3.0 0.0 2 5
r 0.626933 2 0 ack 40 ------- 1 3.0 0.0 1 4
+ 0.626933 0 2 tcp 1040 ------- 1 0.0 3.0 3 6
- 0.626933 0 2 tcp 1040 ------- 1 0.0 3.0 3 6
+ 0.626933 0 2 tcp 1040 ------- 1 0.0 3.0 4 7
r 0.636933 3 2 ack 40 ------- 1 3.0 0.0 2 5
+ 0.636933 2 0 ack 40 ------- 1 3.0 0.0 2 5
- 0.636933 2 0 ack 40 ------- 1 3.0 0.0 2 5
- 0.647733 0 2 tcp 1040 ------- 1 0.0 3.0 4 7
r 0.647733 2 0 ack 40 ------- 1 3.0 0.0 2 5
+ 0.647733 0 2 tcp 1040 ------- 1 0.0 3.0 5 8
+ 0.647733 0 2 tcp 1040 ------- 1 0.0 3.0 6 9
r 0.657733 0 2 tcp 1040 ------- 1 0.0 3.0 3 6
+ 0.657733 2 3 tcp 1040 ------- 1 0.0 3.0 3 6
- 0.657733 2 3 tcp 1040 ------- 1 0.0 3.0 3 6
- 0.668533 0 2 tcp 1040 ------- 1 0.0 3.0 5 8
r 0.678533 0 2 tcp 1040 ------- 1 0.0 3.0 4 7
+ 0.678533 2 3 tcp 1040 ------- 1 0.0 3.0 4 7
- 0.678533 2 3 tcp 1040 ------- 1 0.0 3.0 4 7
r 0.688533 2 3 tcp 1040 ------- 1 0.0 3.0 3 6
+ 0.688533 3 2 ack 40 ------- 1 3.0 0.0 3 10
- 0.688533 3 2 ack 40 ------- 1 3.0 0.0 3 10
- 0.689333 0 2 tcp 1040 ------- 1 0.0 3.0 6 9
r 0.699333 0 2 tcp 1040 ------- 1 0.0 3.0 5 8
+ 0.699333 2 3 tcp 1040 ------- 1 0.0 3.0 5 8
- 0.699333 2 3 tcp 1040 ------- 1 0.0 3.0 5 8
r 0.6996 3 2 ack 40 ------- 1 3.0 0.0 3 10
+ 0.6996 2 0 ack 40 ------- 1 3.0 0.0 3 10
- 0.6996 2 0 ack 40 ------- 1 3.0 0.0 3 10
r 0.709333 2 3 tcp 1040 ------- 1 0.0 3.0 4 7
+ 0.709333 3 2 ack 40 ------- 1 3.0 0.0 4 11
- 0.709333 3 2 ack 40 ------- 1 3.0 0.0 4 11
r 0.7104 2 0 ack 40 ------- 1 3.0 0.0 3 10
+ 0.7104 0 2 tcp 1040 ------- 1 0.0 3.0 7 12
- 0.7104 0 2 tcp 1040 ------- 1 0.0 3.0 7 12
+ 0.7104 0 2 tcp 1040 ------- 1 0.0 3.0 8 13
r 0.720133 0 2 tcp 1040 ------- 1 0.0 3.0 6 9
+ 0.720133 2 3 tcp 1040 ------- 1 0.0 3.0 6 9
- 0.720133 2 3 tcp 1040 ------- 1 0.0 3.0 6 9
r 0.7204 3 2 ack 40 ------- 1 3.0 0.0 4 11
+ 0.7204 2 0 ack 40 ------- 1 3.0 0.0 4 11
- 0.7204 2 0 ack 40 ------- 1 3.0 0.0 4 11
r 0.730133 2 3 tcp 1040 ------- 1 0.0 3.0 5 8
+ 0.730133 3 2 ack 40 ------- 1 3.0 0.0 5 14
- 0.730133 3 2 ack 40 ------- 1 3.0 0.0 5 14
- 0.7312 0 2 tcp 1040 ------- 1 0.0 3.0 8 13
r 0.7312 2 0 ack 40 ------- 1 3.0 0.0 4 11
+ 0.7312 0 2 tcp 1040 ------- 1 0.0 3.0 9 15
+ 0.7312 0 2 tcp 1040 ------- 1 0.0 3.0 10 16
r 0.7412 0 2 tcp 1040 ------- 1 0.0 3.0 7 12
+ 0.7412 2 3 tcp 1040 ------- 1 0.0 3.0 7 12
- 0.7412 2 3 tcp 1040 ------- 1 0.0 3.0 7 12
r 0.7412 3 2 ack 40 ------- 1 3.0 0.0 5 14
+ 0.7412 2 0 ack 40 ------- 1 3.0 0.0 5 14
- 0.7412 2 0 ack 40 ------- 1 3.0 0.0 5 14
r 0.750933 2 3 tcp 1040 ------- 1 0.0 3.0 6 9
+ 0.750933 3 2 ack 40 ------- 1 3.0 0.0 6 17
- 0.750933 3 2 ack 40 ------- 1 3.0 0.0 6 17
- 0.752 0 2 tcp 1040 ------- 1 0.0 3.0 9 15
r 0.752 2 0 ack 40 ------- 1 3.0 0.0 5 14
+ 0.752 0 2 tcp 1040 ------- 1 0.0 3.0 11 18
+ 0.752 0 2 tcp 1040 ------- 1 0.0 3.0 12 19
r 0.762 0 2 tcp 1040 ------- 1 0.0 3.0 8 13
+ 0.762 2 3 tcp 1040 ------- 1 0.0 3.0 8 13
- 0.762 2 3 tcp 1040 ------- 1 0.0 3.0 8 13
r 0.762 3 2 ack 40 ------- 1 3.0 0.0 6 17
+ 0.762 2 0 ack 40 ------- 1 3.0 0.0 6 17
- 0.762 2 0 ack 40 ------- 1 3.0 0.0 6 17
r 0.772 2 3 tcp 1040 ------- 1 0.0 3.0 7 12
+ 0.772 3 2 ack 40 ------- 1 3.0 0.0 7 20
- 0.772 3 2 ack 40 ------- 1 3.0 0.0 7 20
- 0.7728 0 2 tcp 1040 ------- 1 0.0 3.0 10 16
r 0.7728 2 0 ack 40 ------- 1 3.0 0.0 6 17
+ 0.7728 0 2 tcp 1040 ------- 1 0.0 3.0 13 21
+ 0.7728 0 2 tcp 1040 ------- 1 0.0 3.0 14 22
r 0.7828 0 2 tcp 1040 ------- 1 0.0 3.0 9 15
+ 0.7828 2 3 tcp 1040 ------- 1 0.0 3.0 9 15
- 0.7828 2 3 tcp 1040 ------- 1 0.0 3.0 9 15
r 0.783067 3 2 ack 40 ------- 1 3.0 0.0 7 20
+ 0.783067 2 0 ack 40 ------- 1 3.0 0.0 7 20
- 0.783067 2 0 ack 40 ------- 1 3.0 0.0 7 20
r 0.7928 2 3 tcp 1040 ------- 1 0.0 3.0 8 13
+ 0.7928 3 2 ack 40 ------- 1 3.0 0.0 8 23
- 0.7928 3 2 ack 40 ------- 1 3.0 0.0 8 23
- 0.7936 0 2 tcp 1040 ------- 1 0.0 3.0 11 18
r 0.793867 2 0 ack 40 ------- 1 3.0 0.0 7 20
+ 0.793867 0 2 tcp 1040 ------- 1 0.0 3.0 15 24
+ 0.793867 0 2 tcp 1040 ------- 1 0.0 3.0 16 25
r 0.8036 0 2 tcp 1040 ------- 1 0.0 3.0 10 16
+ 0.8036 2 3 tcp 1040 ------- 1 0.0 3.0 10 16
- 0.8036 2 3 tcp 1040 ------- 1 0.0 3.0 10 16
r 0.803867 3 2 ack 40 ------- 1 3.0 0.0 8 23
+ 0.803867 2 0 ack 40 ------- 1 3.0 0.0 8 23
- 0.803867 2 0 ack 40 ------- 1 3.0 0.0 8 23
r 0.8136 2 3 tcp 1040 ------- 1 0.0 3.0 9 15
+ 0.8136 3 2 ack 40 ------- 1 3.0 0.0 9 26
- 0.8136 3 2 ack 40 ------- 1 3.0 0.0 9 26
- 0.8144 0 2 tcp 1040 ------- 1 0.0 3.0 12 19
r 0.814667 2 0 ack 40 ------- 1 3.0 0.0 8 23
+ 0.814667 0 2 tcp 1040 ------- 1 0.0 3.0 17 27
+ 0.814667 0 2 tcp 1040 ------- 1 0.0 3.0 18 28
r 0.8244 0 2 tcp 1040 ------- 1 0.0 3.0 11 18
+ 0.8244 2 3 tcp 1040 ------- 1 0.0 3.0 11 18
- 0.8244 2 3 tcp 1040 ------- 1 0.0 3.0 11 18
r 0.824667 3 2 ack 40 ------- 1 3.0 0.0 9 26
+ 0.824667 2 0 ack 40 ------- 1 3.0 0.0 9 26
- 0.824667 2 0 ack 40 ------- 1 3.0 0.0 9 26
r 0.8344 2 3 tcp 1040 ------- 1 0.0 3.0 10 16
+ 0.8344 3 2 ack 40 ------- 1 3.0 0.0 10 29
- 0.8344 3 2 ack 40 ------- 1 3.0 0.0 10 29
- 0.8352 0 2 tcp 1040 ------- 1 0.0 3.0 13 21
r 0.835467 2 0 ack 40 ------- 1 3.0 0.0 9 26
+ 0.835467 0 2 tcp 1040 ------- 1 0.0 3.0 19 30
+ 0.835467 0 2 tcp 1040 ------- 1 0.0 3.0 20 31
r 0.8452 0 2 tcp 1040 ------- 1 0.0 3.0 12 19
+ 0.8452 2 3 tcp 1040 ------- 1 0.0 3.0 12 19
- 0.8452 2 3 tcp 1040 ------- 1 0.0 3.0 12 19
r 0.845467 3 2 ack 40 ------- 1 3.0 0.0 10 29
+ 0.845467 2 0 ack 40 ------- 1 3.0 0.0 10 29
- 0.845467 2 0 ack 40 ------- 1 3.0 0.0 10 29
r 0.8552 2 3 tcp 1040 ------- 1 0.0 3.0 11 18
+ 0.8552 3 2 ack 40 ------- 1 3.0 0.0 11 32
- 0.8552 3 2 ack 40 ------- 1 3.0 0.0 11 32
- 0.856 0 2 tcp 1040 ------- 1 0.0 3.0 14 22
r 0.856267 2 0 ack 40 ------- 1 3.0 0.0 10 29
+ 0.856267 0 2 tcp 1040 ------- 1 0.0 3.0 21 33
+ 0.856267 0 2 tcp 1040 ------- 1 0.0 3.0 22 34
r 0.866 0 2 tcp 1040 ------- 1 0.0 3.0 13 21
+ 0.866 2 3 tcp 1040 ------- 1 0.0 3.0 13 21
- 0.866 2 3 tcp 1040 ------- 1 0.0 3.0 13 21
r 0.866267 3 2 ack 40 ------- 1 3.0 0.0 11 32
+ 0.866267 2 0 ack 40 ------- 1 3.0 0.0 11 32
- 0.866267 2 0 ack 40 ------- 1 3.0 0.0 11 32
r 0.876 2 3 tcp 1040 ------- 1 0.0 3.0 12 19
+ 0.876 3 2 ack 40 ------- 1 3.0 0.0 12 35
- 0.876 3 2 ack 40 ------- 1 3.0 0.0 12 35
- 0.8768 0 2 tcp 1040 ------- 1 0.0 3.0 15 24
r 0.877067 2 0 ack 40 ------- 1 3.0 0.0 11 32
+ 0.877067 0 2 tcp 1040 ------- 1 0.0 3.0 23 36
+ 0.877067 0 2 tcp 1040 ------- 1 0.0 3.0 24 37
r 0.8868 0 2 tcp 1040 ------- 1 0.0 3.0 14 22
+ 0.8868 2 3 tcp 1040 ------- 1 0.0 3.0 14 22
- 0.8868 2 3 tcp 1040 ------- 1 0.0 3.0 14 22
r 0.887067 3 2 ack 40 ------- 1 3.0 0.0 12 35
+ 0.887067 2 0 ack 40 ------- 1 3.0 0.0 12 35
- 0.887067 2 0 ack 40 ------- 1 3.0 0.0 12 35
r 0.8968 2 3 tcp 1040 ------- 1 0.0 3.0 13 21
+ 0.8968 3 2 ack 40 ------- 1 3.0 0.0 13 38
- 0.8968 3 2 ack 40 ------- 1 3.0 0.0 13 38
- 0.8976 0 2 tcp 1040 ------- 1 0.0 3.0 16 25
r 0.897867 2 0 ack 40 ------- 1 3.0 0.0 12 35
+ 0.897867 0 2 tcp 1040 ------- 1 0.0 3.0 25 39
+ 0.897867 0 2 tcp 1040 ------- 1 0.0 3.0 26 40
d 0.897867 0 2 tcp 1040 ------- 1 0.0 3.0 26 40
r 0.9076 0 2 tcp 1040 ------- 1 0.0 3.0 15 24
+ 0.9076 2 3 tcp 1040 ------- 1 0.0 3.0 15 24
- 0.9076 2 3 tcp 1040 ------- 1 0.0 3.0 15 24
r 0.907867 3 2 ack 40 ------- 1 3.0 0.0 13 38
+ 0.907867 2 0 ack 40 ------- 1 3.0 0.0 13 38
- 0.907867 2 0 ack 40 ------- 1 3.0 0.0 13 38
r 0.9176 2 3 tcp 1040 ------- 1 0.0 3.0 14 22
+ 0.9176 3 2 ack 40 ------- 1 3.0 0.0 14 41
- 0.9176 3 2 ack 40 ------- 1 3.0 0.0 14 41
- 0.9184 0 2 tcp 1040 ------- 1 0.0 3.0 17 27
r 0.918667 2 0 ack 40 ------- 1 3.0 0.0 13 38
+ 0.918667 0 2 tcp 1040 ------- 1 0.0 3.0 27 42
+ 0.918667 0 2 tcp 1040 ------- 1 0.0 3.0 28 43
d 0.918667 0 2 tcp 1040 ------- 1 0.0 3.0 28 43
r 0.9284 0 2 tcp 1040 ------- 1 0.0 3.0 16 25
+ 0.9284 2 3 tcp 1040 ------- 1 0.0 3.0 16 25
- 0.9284 2 3 tcp 1040 ------- 1 0.0 3.0 16 25
r 0.928667 3 2 ack 40 ------- 1 3.0 0.0 14 41
+ 0.928667 2 0 ack 40 ------- 1 3.0 0.0 14 41
- 0.928667 2 0 ack 40 ------- 1 3.0 0.0 14 41
r 0.9384 2 3 tcp 1040 ------- 1 0.0 3.0 15 24
+ 0.9384 3 2 ack 40 ------- 1 3.0 0.0 15 44
- 0.9384 3 2 ack 40 ------- 1 3.0 0.0 15 44
- 0.9392 0 2 tcp 1040 ------- 1 0.0 3.0 18 28
r 0.939467 2 0 ack 40 ------- 1 3.0 0.0 14 41
+ 0.939467 0 2 tcp 1040 ------- 1 0.0 3.0 29 45
+ 0.939467 0 2 tcp 1040 ------- 1 0.0 3.0 30 46
d 0.939467 0 2 tcp 1040 ------- 1 0.0 3.0 30 46
r 0.9492 0 2 tcp 1040 ------- 1 0.0 3.0 17 27
+ 0.9492 2 3 tcp 1040 ------- 1 0.0 3.0 17 27
- 0.9492 2 3 tcp 1040 ------- 1 0.0 3.0 17 27
r 0.949467 3 2 ack 40 ------- 1 3.0 0.0 15 44
+ 0.949467 2 0 ack 40 ------- 1 3.0 0.0 15 44
- 0.949467 2 0 ack 40 ------- 1 3.0 0.0 15 44
r 0.9592 2 3 tcp 1040 ------- 1 0.0 3.0 16 25
+ 0.9592 3 2 ack 40 ------- 1 3.0 0.0 16 47
- 0.9592 3 2 ack 40 ------- 1 3.0 0.0 16 47
- 0.96 0 2 tcp 1040 ------- 1 0.0 3.0 19 30
r 0.960267 2 0 ack 40 ------- 1 3.0 0.0 15 44
+ 0.960267 0 2 tcp 1040 ------- 1 0.0 3.0 31 48
+ 0.960267 0 2 tcp 1040 ------- 1 0.0 3.0 32 49
d 0.960267 0 2 tcp 1040 ------- 1 0.0 3.0 32 49
r 0.97 0 2 tcp 1040 ------- 1 0.0 3.0 18 28
+ 0.97 2 3 tcp 1040 ------- 1 0.0 3.0 18 28
- 0.97 2 3 tcp 1040 ------- 1 0.0 3.0 18 28
r 0.970267 3 2 ack 40 ------- 1 3.0 0.0 16 47
+ 0.970267 2 0 ack 40 ------- 1 3.0 0.0 16 47
- 0.970267 2 0 ack 40 ------- 1 3.0 0.0 16 47
r 0.98 2 3 tcp 1040 ------- 1 0.0 3.0 17 27
+ 0.98 3 2 ack 40 ------- 1 3.0 0.0 17 50
- 0.98 3 2 ack 40 ------- 1 3.0 0.0 17 50
- 0.9808 0 2 tcp 1040 ------- 1 0.0 3.0 20 31
r 0.981067 2 0 ack 40 ------- 1 3.0 0.0 16 47
+ 0.981067 0 2 tcp 1040 ------- 1 0.0 3.0 33 51
+ 0.981067 0 2 tcp 1040 ------- 1 0.0 3.0 34 52
d 0.981067 0 2 tcp 1040 ------- 1 0.0 3.0 34 52
r 0.9908 0 2 tcp 1040 ------- 1 0.0 3.0 19 30
+ 0.9908 2 3 tcp 1040 ------- 1 0.0 3.0 19 30
- 0.9908 2 3 tcp 1040 ------- 1 0.0 3.0 19 30
r 0.991067 3 2 ack 40 ------- 1 3.0 0.0 17 50
+ 0.991067 2 0 ack 40 ------- 1 3.0 0.0 17 50
- 0.991067 2 0 ack 40 ------- 1 3.0 0.0 17 50
r 1.0008 2 3 tcp 1040 ------- 1 0.0 3.0 18 28
+ 1.0008 3 2 ack 40 ------- 1 3.0 0.0 18 53
- 1.0008 3 2 ack 40 ------- 1 3.0 0.0 18 53
- 1.0016 0 2 tcp 1040 ------- 1 0.0 3.0 21 33
r 1.001867 2 0 ack 40 ------- 1 3.0 0.0 17 50
+ 1.001867 0 2 tcp 1040 ------- 1 0.0 3.0 35 54
+ 1.001867 0 2 tcp 1040 ------- 1 0.0 3.0 36 55
d 1.001867 0 2 tcp 1040 ------- 1 0.0 3.0 36 55
r 1.0116 0 2 tcp 1040 ------- 1 0.0 3.0 20 31
+ 1.0116 2 3 tcp 1040 ------- 1 0.0 3.0 20 31
- 1.0116 2 3 tcp 1040 ------- 1 0.0 3.0 20 31
r 1.011867 3 2 ack 40 ------- 1 3.0 0.0 18 53
+ 1.011867 2 0 ack 40 ------- 1 3.0 0.0 18 53
- 1.011867 2 0 ack 40 ------- 1 3.0 0.0 18 53
r 1.0216 2 3 tcp 1040 ------- 1 0.0 3.0 19 30
+ 1.0216 3 2 ack 40 ------- 1 3.0 0.0 19 56
- 1.0216 3 2 ack 40 ------- 1 3.0 0.0 19 56
- 1.0224 0 2 tcp 1040 ------- 1 0.0 3.0 22 34
r 1.022667 2 0 ack 40 ------- 1 3.0 0.0 18 53
+ 1.022667 0 2 tcp 1040 ------- 1 0.0 3.0 37 57
+ 1.022667 0 2 tcp 1040 ------- 1 0.0 3.0 38 58
d 1.022667 0 2 tcp 1040 ------- 1 0.0 3.0 38 58
r 1.0324 0 2 tcp 1040 ------- 1 0.0 3.0 21 33
+ 1.0324 2 3 tcp 1040 ------- 1 0.0 3.0 21 33
- 1.0324 2 3 tcp 1040 ------- 1 0.0 3.0 21 33
r 1.032667 3 2 ack 40 ------- 1 3.0 0.0 19 56
+ 1.032667 2 0 ack 40 ------- 1 3.0 0.0 19 56
- 1.032667 2 0 ack 40 ------- 1 3.0 0.0 19 56
r 1.0424 2 3 tcp 1040 ------- 1 0.0 3.0 20 31
+ 1.0424 3 2 ack 40 ------- 1 3.0 0.0 20 59
- 1.0424 3 2 ack 40 ------- 1 3.0 0.0 20 59
- 1.0432 0 2 tcp 1040 ------- 1 0.0 3.0 23 36
r 1.043467 2 0 ack 40 ------- 1 3.0 0.0 19 56
+ 1.043467 0 2 tcp 1040 ------- 1 0.0 3.0 39 60
r 1.0532 0 2 tcp 1040 ------- 1 0.0 3.0 22 34
+ 1.0532 2 3 tcp 1040 ------- 1 0.0 3.0 22 34
- 1.0532 2 3 tcp 1040 ------- 1 0.0 3.0 22 34
r 1.053467 3 2 ack 40 ------- 1 3.0 0.0 20 59
+ 1.053467 2 0 ack 40 ------- 1 3.0 0.0 20 59
- 1.053467 2 0 ack 40 ------- 1 3.0 0.0 20 59
r 1.0632 2 3 tcp 1040 ------- 1 0.0 3.0 21 33
+ 1.0632 3 2 ack 40 ------- 1 3.0 0.0 21 61
- 1.0632 3 2 ack 40 ------- 1 3.0 0.0 21 61
- 1.064 0 2 tcp 1040 ------- 1 0.0 3.0 24 37
r 1.064267 2 0 ack 40 ------- 1 3.0 0.0 20 59
+ 1.064267 0 2 tcp 1040 ------- 1 0.0 3.0 40 62
r 1.074 0 2 tcp 1040 ------- 1 0.0 3.0 23 36
+ 1.074 2 3 tcp 1040 ------- 1 0.0 3.0 23 36
- 1.074 2 3 tcp 1040 ------- 1 0.0 3.0 23 36
r 1.074267 3 2 ack 40 ------- 1 3.0 0.0 21 61
+ 1.074267 2 0 ack 40 ------- 1 3.0 0.0 21 61
- 1.074267 2 0 ack 40 ------- 1 3.0 0.0 21 61
r 1.084 2 3 tcp 1040 ------- 1 0.0 3.0 22 34
+ 1.084 3 2 ack 40 ------- 1 3.0 0.0 22 63
- 1.084 3 2 ack 40 ------- 1 3.0 0.0 22 63
- 1.0848 0 2 tcp 1040 ------- 1 0.0 3.0 25 39
r 1.085067 2 0 ack 40 ------- 1 3.0 0.0 21 61
+ 1.085067 0 2 tcp 1040 ------- 1 0.0 3.0 41 64
r 1.0948 0 2 tcp 1040 ------- 1 0.0 3.0 24 37
+ 1.0948 2 3 tcp 1040 ------- 1 0.0 3.0 24 37
- 1.0948 2 3 tcp 1040 ------- 1 0.0 3.0 24 37
r 1.095067 3 2 ack 40 ------- 1 3.0 0.0 22 63
+ 1.095067 2 0 ack 40 ------- 1 3.0 0.0 22 63
- 1.095067 2 0 ack 40 ------- 1 3.0 0.0 22 63
r 1.1048 2 3 tcp 1040 ------- 1 0.0 3.0 23 36
+ 1.1048 3 2 ack 40 ------- 1 3.0 0.0 23 65
- 1.1048 3 2 ack 40 ------- 1 3.0 0.0 23 65
- 1.1056 0 2 tcp 1040 ------- 1 0.0 3.0 27 42
r 1.105867 2 0 ack 40 ------- 1 3.0 0.0 22 63
+ 1.105867 0 2 tcp 1040 ------- 1 0.0 3.0 42 66
r 1.1156 0 2 tcp 1040 ------- 1 0.0 3.0 25 39
+ 1.1156 2 3 tcp 1040 ------- 1 0.0 3.0 25 39
- 1.1156 2 3 tcp 1040 ------- 1 0.0 3.0 25 39
r 1.115867 3 2 ack 40 ------- 1 3.0 0.0 23 65
+ 1.115867 2 0 ack 40 ------- 1 3.0 0.0 23 65
- 1.115867 2 0 ack 40 ------- 1 3.0 0.0 23 65
r 1.1256 2 3 tcp 1040 ------- 1 0.0 3.0 24 37
+ 1.1256 3 2 ack 40 ------- 1 3.0 0.0 24 67
- 1.1256 3 2 ack 40 ------- 1 3.0 0.0 24 67
- 1.1264 0 2 tcp 1040 ------- 1 0.0 3.0 29 45
r 1.126667 2 0 ack 40 ------- 1 3.0 0.0 23 65
+ 1.126667 0 2 tcp 1040 ------- 1 0.0 3.0 43 68
r 1.1364 0 2 tcp 1040 ------- 1 0.0 3.0 27 42
+ 1.1364 2 3 tcp 1040 ------- 1 0.0 3.0 27 42
- 1.1364 2 3 tcp 1040 ------- 1 0.0 3.0 27 42
r 1.136667 3 2 ack 40 ------- 1 3.0 0.0 24 67
+ 1.136667 2 0 ack 40 ------- 1 3.0 0.0 24 67
- 1.136667 2 0 ack 40 ------- 1 3.0 0.0 24 67
r 1.1464 2 3 tcp 1040 ------- 1 0.0 3.0 25 39
+ 1.1464 3 2 ack 40 ------- 1 3.0 0.0 25 69
- 1.1464 3 2 ack 40 ------- 1 3.0 0.0 25 69
- 1.1472 0 2 tcp 1040 ------- 1 0.0 3.0 31 48
r 1.147467 2 0 ack 40 ------- 1 3.0 0.0 24 67
+ 1.147467 0 2 tcp 1040 ------- 1 0.0 3.0 44 70
r 1.1572 0 2 tcp 1040 ------- 1 0.0 3.0 29 45
+ 1.1572 2 3 tcp 1040 ------- 1 0.0 3.0 29 45
- 1.1572 2 3 tcp 1040 ------- 1 0.0 3.0 29 45
r 1.157467 3 2 ack 40 ------- 1 3.0 0.0 25 69
+ 1.157467 2 0 ack 40 ------- 1 3.0 0.0 25 69
- 1.157467 2 0 ack 40 ------- 1 3.0 0.0 25 69
r 1.1672 2 3 tcp 1040 ------- 1 0.0 3.0 27 42
+ 1.1672 3 2 ack 40 ------- 1 3.0 0.0 25 71
- 1.1672 3 2 ack 40 ------- 1 3.0 0.0 25 71
- 1.168 0 2 tcp 1040 ------- 1 0.0 3.0 33 51
r 1.168267 2 0 ack 40 ------- 1 3.0 0.0 25 69
+ 1.168267 0 2 tcp 1040 ------- 1 0.0 3.0 45 72
r 1.178 0 2 tcp 1040 ------- 1 0.0 3.0 31 48
+ 1.178 2 3 tcp 1040 ------- 1 0.0 3.0 31 48
- 1.178 2 3 tcp 1040 ------- 1 0.0 3.0 31 48
r 1.178267 3 2 ack 40 ------- 1 3.0 0.0 25 71
+ 1.178267 2 0 ack 40 ------- 1 3.0 0.0 25 71
- 1.178267 2 0 ack 40 ------- 1 3.0 0.0 25 71
r 1.188 2 3 tcp 1040 ------- 1 0.0 3.0 29 45
+ 1.188 3 2 ack 40 ------- 1 3.0 0.0 25 73
- 1.188 3 2 ack 40 ------- 1 3.0 0.0 25 73
- 1.1888 0 2 tcp 1040 ------- 1 0.0 3.0 35 54
r 1.189067 2 0 ack 40 ------- 1 3.0 0.0 25 71
r 1.1988 0 2 tcp 1040 ------- 1 0.0 3.0 33 51
+ 1.1988 2 3 tcp 1040 ------- 1 0.0 3.0 33 51
- 1.1988 2 3 tcp 1040 ------- 1 0.0 3.0 33 51
r 1.199067 3 2 ack 40 ------- 1 3.0 0.0 25 73
+ 1.199067 2 0 ack 40 ------- 1 3.0 0.0 25 73
- 1.199067 2 0 ack 40 ------- 1 3.0 0.0 25 73
r 1.2088 2 3 tcp 1040 ------- 1 0.0 3.0 31 48
+ 1.2088 3 2 ack 40 ------- 1 3.0 0.0 25 74
- 1.2088 3 2 ack 40 ------- 1 3.0 0.0 25 74
- 1.2096 0 2 tcp 1040 ------- 1 0.0 3.0 37 57
r 1.209867 2 0 ack 40 ------- 1 3.0 0.0 25 73
r 1.2196 0 2 tcp 1040 ------- 1 0.0 3.0 35 54
+ 1.2196 2 3 tcp 1040 ------- 1 0.0 3.0 35 54
- 1.2196 2 3 tcp 1040 ------- 1 0.0 3.0 35 54
r 1.219867 3 2 ack 40 ------- 1 3.0 0.0 25 74
+ 1.219867 2 0 ack 40 ------- 1 3.0 0.0 25 74
- 1.219867 2 0 ack 40 ------- 1 3.0 0.0 25 74
r 1.2296 2 3 tcp 1040 ------- 1 0.0 3.0 33 51
+ 1.2296 3 2 ack 40 ------- 1 3.0 0.0 25 75
- 1.2296 3 2 ack 40 ------- 1 3.0 0.0 25 75
- 1.2304 0 2 tcp 1040 ------- 1 0.0 3.0 39 60
r 1.230667 2 0 ack 40 ------- 1 3.0 0.0 25 74
+ 1.230667 0 2 tcp 1040 ---A--- 1 0.0 3.0 26 76
r 1.2404 0 2 tcp 1040 ------- 1 0.0 3.0 37 57
+ 1.2404 2 3 tcp 1040 ------- 1 0.0 3.0 37 57
- 1.2404 2 3 tcp 1040 ------- 1 0.0 3.0 37 57
r 1.240667 3 2 ack 40 ------- 1 3.0 0.0 25 75
+ 1.240667 2 0 ack 40 ------- 1 3.0 0.0 25 75
- 1.240667 2 0 ack 40 ------- 1 3.0 0.0 25 75
r 1.2504 2 3 tcp 1040 ------- 1 0.0 3.0 35 54
+ 1.2504 3 2 ack 40 ------- 1 3.0 0.0 25 77
- 1.2504 3 2 ack 40 ------- 1 3.0 0.0 25 77
- 1.2512 0 2 tcp 1040 ------- 1 0.0 3.0 40 62
r 1.251467 2 0 ack 40 ------- 1 3.0 0.0 25 75
r 1.2612 0 2 tcp 1040 ------- 1 0.0 3.0 39 60
+ 1.2612 2 3 tcp 1040 ------- 1 0.0 3.0 39 60
- 1.2612 2 3 tcp 1040 ------- 1 0.0 3.0 39 60
r 1.261467 3 2 ack 40 ------- 1 3.0 0.0 25 77
+ 1.261467 2 0 ack 40 ------- 1 3.0 0.0 25 77
- 1.261467 2 0 ack 40 ------- 1 3.0 0.0 25 77
r 1.2712 2 3 tcp 1040 ------- 1 0.0 3.0 37 57
+ 1.2712 3 2 ack 40 ------- 1 3.0 0.0 25 78
- 1.2712 3 2 ack 40 ------- 1 3.0 0.0 25 78
- 1.272 0 2 tcp 1040 ------- 1 0.0 3.0 41 64
r 1.272267 2 0 ack 40 ------- 1 3.0 0.0 25 77
r 1.282 0 2 tcp 1040 ------- 1 0.0 3.0 40 62
+ 1.282 2 3 tcp 1040 ------- 1 0.0 3.0 40 62
- 1.282 2 3 tcp 1040 ------- 1 0.0 3.0 40 62
r 1.282267 3 2 ack 40 ------- 1 3.0 0.0 25 78
+ 1.282267 2 0 ack 40 ------- 1 3.0 0.0 25 78
- 1.282267 2 0 ack 40 ------- 1 3.0 0.0 25 78
r 1.292 2 3 tcp 1040 ------- 1 0.0 3.0 39 60
+ 1.292 3 2 ack 40 ------- 1 3.0 0.0 25 79
- 1.292 3 2 ack 40 ------- 1 3.0 0.0 25 79
- 1.2928 0 2 tcp 1040 ------- 1 0.0 3.0 42 66
r 1.293067 2 0 ack 40 ------- 1 3.0 0.0 25 78
r 1.3028 0 2 tcp 1040 ------- 1 0.0 3.0 41 64
+ 1.3028 2 3 tcp 1040 ------- 1 0.0 3.0 41 64
- 1.3028 2 3 tcp 1040 ------- 1 0.0 3.0 41 64
r 1.303067 3 2 ack 40 ------- 1 3.0 0.0 25 79
+ 1.303067 2 0 ack 40 ------- 1 3.0 0.0 25 79
- 1.303067 2 0 ack 40 ------- 1 3.0 0.0 25 79
r 1.3128 2 3 tcp 1040 ------- 1 0.0 3.0 40 62
+ 1.3128 3 2 ack 40 ------- 1 3.0 0.0 25 80
- 1.3128 3 2 ack 40 ------- 1 3.0 0.0 25 80
- 1.3136 0 2 tcp 1040 ------- 1 0.0 3.0 43 68
r 1.313867 2 0 ack 40 ------- 1 3.0 0.0 25 79
+ 1.318317 1 2 tcp 40 ------- 2 1.0 3.1 0 81
- 1.318317 1 2 tcp 40 ------- 2 1.0 3.1 0 81
r 1.3236 0 2 tcp 1040 ------- 1 0.0 3.0 42 66
+ 1.3236 2 3 tcp 1040 ------- 1 0.0 3.0 42 66
- 1.3236 2 3 tcp 1040 ------- 1 0.0 3.0 42 66
r 1.323867 3 2 ack 40 ------- 1 3.0 0.0 25 80
+ 1.323867 2 0 ack 40 ------- 1 3.0 0.0 25 80
- 1.323867 2 0 ack 40 ------- 1 3.0 0.0 25 80
r 1.329117 1 2 tcp 40 ------- 2 1.0 3.1 0 81
+ 1.329117 2 3 tcp 40 ------- 2 1.0 3.1 0 81
r 1.3336 2 3 tcp 1040 ------- 1 0.0 3.0 41 64
+ 1.3336 3 2 ack 40 ------- 1 3.0 0.0 25 82
- 1.3336 3 2 ack 40 ------- 1 3.0 0.0 25 82
- 1.3344 0 2 tcp 1040 ------- 1 0.0 3.0 44 70
r 1.334667 2 0 ack 40 ------- 1 3.0 0.0 25 80
r 1.3444 0 2 tcp 1040 ------- 1 0.0 3.0 43 68
+ 1.3444 2 3 tcp 1040 ------- 1 0.0 3.0 43 68
- 1.3444 2 3 tcp 40 ------- 2 1.0 3.1 0 81
r 1.344667 3 2 ack 40 ------- 1 3.0 0.0 25 82
+ 1.344667 2 0 ack 40 ------- 1 3.0 0.0 25 82
- 1.344667 2 0 ack 40 ------- 1 3.0 0.0 25 82
- 1.3452 2 3 tcp 1040 ------- 1 0.0 3.0 43 68
r 1.3544 2 3 tcp 1040 ------- 1 0.0 3.0 42 66
+ 1.3544 3 2 ack 40 ------- 1 3.0 0.0 25 83
- 1.3544 3 2 ack 40 ------- 1 3.0 0.0 25 83
- 1.3552 0 2 tcp 1040 ------- 1 0.0 3.0 45 72
r 1.3552 2 3 tcp 40 ------- 2 1.0 3.1 0 81
+ 1.3552 3 2 ack 40 ------- 2 3.1 1.0 0 84
r 1.355467 2 0 ack 40 ------- 1 3.0 0.0 25 82
- 1.355467 3 2 ack 40 ------- 2 3.1 1.0 0 84
r 1.3652 0 2 tcp 1040 ------- 1 0.0 3.0 44 70
+ 1.3652 2 3 tcp 1040 ------- 1 0.0 3.0 44 70
r 1.365467 3 2 ack 40 ------- 1 3.0 0.0 25 83
+ 1.365467 2 0 ack 40 ------- 1 3.0 0.0 25 83
- 1.365467 2 0 ack 40 ------- 1 3.0 0.0 25 83
- 1.366 2 3 tcp 1040 ------- 1 0.0 3.0 44 70
r 1.366533 3 2 ack 40 ------- 2 3.1 1.0 0 84
+ 1.366533 2 1 ack 40 ------- 2 3.1 1.0 0 84
- 1.366533 2 1 ack 40 ------- 2 3.1 1.0 0 84
r 1.376 2 3 tcp 1040 ------- 1 0.0 3.0 43 68
+ 1.376 3 2 ack 40 ------- 1 3.0 0.0 25 85
- 1.376 3 2 ack 40 ------- 1 3.0 0.0 25 85
- 1.376 0 2 tcp 1040 ---A--- 1 0.0 3.0 26 76
r 1.376267 2 0 ack 40 ------- 1 3.0 0.0 25 83
r 1.377333 2 1 ack 40 ------- 2 3.1 1.0 0 84
+ 1.377333 1 2 tcp 1040 ------- 2 1.0 3.1 1 86
- 1.377333 1 2 tcp 1040 ------- 2 1.0 3.1 1 86
r 1.386 0 2 tcp 1040 ------- 1 0.0 3.0 45 72
+ 1.386 2 3 tcp 1040 ------- 1 0.0 3.0 45 72
- 1.3868 2 3 tcp 1040 ------- 1 0.0 3.0 45 72
r 1.387067 3 2 ack 40 ------- 1 3.0 0.0 25 85
+ 1.387067 2 0 ack 40 ------- 1 3.0 0.0 25 85
- 1.387067 2 0 ack 40 ------- 1 3.0 0.0 25 85
r 1.3968 2 3 tcp 1040 ------- 1 0.0 3.0 44 70
+ 1.3968 3 2 ack 40 ------- 1 3.0 0.0 25 87
- 1.3968 3 2 ack 40 ------- 1 3.0 0.0 25 87
r 1.397867 2 0 ack 40 ------- 1 3.0 0.0 25 85
r 1.4068 0 2 tcp 1040 ---A--- 1 0.0 3.0 26 76
+ 1.4068 2 3 tcp 1040 ---A--- 1 0.0 3.0 26 76
- 1.4076 2 3 tcp 1040 ---A--- 1 0.0 3.0 26 76
r 1.407867 3 2 ack 40 ------- 1 3.0 0.0 25 87
+ 1.407867 2 0 ack 40 ------- 1 3.0 0.0 25 87
- 1.407867 2 0 ack 40 ------- 1 3.0 0.0 25 87
r 1.408133 1 2 tcp 1040 ------- 2 1.0 3.1 1 86
+ 1.408133 2 3 tcp 1040 ------- 2 1.0 3.1 1 86
r 1.4176 2 3 tcp 1040 ------- 1 0.0 3.0 45 72
+ 1.4176 3 2 ack 40 ------- 1 3.0 0.0 25 88
- 1.4176 3 2 ack 40 ------- 1 3.0 0.0 25 88
r 1.418667 2 0 ack 40 ------- 1 3.0 0.0 25 87
- 1.4284 2 3 tcp 1040 ------- 2 1.0 3.1 1 86
r 1.428667 3 2 ack 40 ------- 1 3.0 0.0 25 88
+ 1.428667 2 0 ack 40 ------- 1 3.0 0.0 25 88
- 1.428667 2 0 ack 40 ------- 1 3.0 0.0 25 88
r 1.4384 2 3 tcp 1040 ---A--- 1 0.0 3.0 26 76
+ 1.4384 3 2 ack 40 ------- 1 3.0 0.0 27 89
- 1.4384 3 2 ack 40 ------- 1 3.0 0.0 27 89
r 1.439467 2 0 ack 40 ------- 1 3.0 0.0 25 88
r 1.449467 3 2 ack 40 ------- 1 3.0 0.0 27 89
+ 1.449467 2 0 ack 40 ------- 1 3.0 0.0 27 89
- 1.449467 2 0 ack 40 ------- 1 3.0 0.0 27 89
r 1.4592 2 3 tcp 1040 ------- 2 1.0 3.1 1 86
+ 1.4592 3 2 ack 40 ------- 2 3.1 1.0 1 90
- 1.4592 3 2 ack 40 ------- 2 3.1 1.0 1 90
r 1.460267 2 0 ack 40 ------- 1 3.0 0.0 27 89
+ 1.460267 0 2 tcp 1040 ------- 1 0.0 3.0 28 91
- 1.460267 0 2 tcp 1040 ------- 1 0.0 3.0 28 91
+ 1.460267 0 2 tcp 1040 ------- 1 0.0 3.0 29 92
r 1.470267 3 2 ack 40 ------- 2 3.1 1.0 1 90
+ 1.470267 2 1 ack 40 ------- 2 3.1 1.0 1 90
- 1.470267 2 1 ack 40 ------- 2 3.1 1.0 1 90
- 1.481067 0 2 tcp 1040 ------- 1 0.0 3.0 29 92
r 1.481067 2 1 ack 40 ------- 2 3.1 1.0 1 90
r 1.491067 0 2 tcp 1040 ------- 1 0.0 3.0 28 91
+ 1.491067 2 3 tcp 1040 ------- 1 0.0 3.0 28 91
- 1.491067 2 3 tcp 1040 ------- 1 0.0 3.0 28 91
r 1.511867 0 2 tcp 1040 ------- 1 0.0 3.0 29 92
+ 1.511867 2 3 tcp 1040 ------- 1 0.0 3.0 29 92
- 1.511867 2 3 tcp 1040 ------- 1 0.0 3.0 29 92
r 1.521867 2 3 tcp 1040 ------- 1 0.0 3.0 28 91
+ 1.521867 3 2 ack 40 ------- 1 3.0 0.0 29 93
- 1.521867 3 2 ack 40 ------- 1 3.0 0.0 29 93
r 1.532933 3 2 ack 40 ------- 1 3.0 0.0 29 93
+ 1.532933 2 0 ack 40 ------- 1 3.0 0.0 29 93
- 1.532933 2 0 ack 40 ------- 1 3.0 0.0 29 93
+ 1.542517 1 2 tcp 1040 ------- 2 1.0 3.1 2 94
- 1.542517 1 2 tcp 1040 ------- 2 1.0 3.1 2 94
r 1.542667 2 3 tcp 1040 ------- 1 0.0 3.0 29 92
+ 1.542667 3 2 ack 40 ------- 1 3.0 0.0 29 95
- 1.542667 3 2 ack 40 ------- 1 3.0 0.0 29 95
r 1.543733 2 0 ack 40 ------- 1 3.0 0.0 29 93
+ 1.543733 0 2 tcp 1040 ------- 1 0.0 3.0 30 96
- 1.543733 0 2 tcp 1040 ------- 1 0.0 3.0 30 96
+ 1.543733 0 2 tcp 1040 ------- 1 0.0 3.0 31 97
+ 1.543733 0 2 tcp 1040 ------- 1 0.0 3.0 32 98
r 1.553733 3 2 ack 40 ------- 1 3.0 0.0 29 95
+ 1.553733 2 0 ack 40 ------- 1 3.0 0.0 29 95
- 1.553733 2 0 ack 40 ------- 1 3.0 0.0 29 95
- 1.564533 0 2 tcp 1040 ------- 1 0.0 3.0 31 97
r 1.564533 2 0 ack 40 ------- 1 3.0 0.0 29 95
+ 1.564533 0 2 tcp 1040 ------- 1 0.0 3.0 33 99
r 1.573317 1 2 tcp 1040 ------- 2 1.0 3.1 2 94
+ 1.573317 2 3 tcp 1040 ------- 2 1.0 3.1 2 94
- 1.573317 2 3 tcp 1040 ------- 2 1.0 3.1 2 94
r 1.574533 0 2 tcp 1040 ------- 1 0.0 3.0 30 96
+ 1.574533 2 3 tcp 1040 ------- 1 0.0 3.0 30 96
- 1.585333 0 2 tcp 1040 ------- 1 0.0 3.0 32 98
- 1.594117 2 3 tcp 1040 ------- 1 0.0 3.0 30 96
r 1.595333 0 2 tcp 1040 ------- 1 0.0 3.0 31 97
+ 1.595333 2 3 tcp 1040 ------- 1 0.0 3.0 31 97
r 1.604117 2 3 tcp 1040 ------- 2 1.0 3.1 2 94
+ 1.604117 3 2 ack 40 ------- 2 3.1 1.0 2 100
- 1.604117 3 2 ack 40 ------- 2 3.1 1.0 2 100
- 1.606133 0 2 tcp 1040 ------- 1 0.0 3.0 33 99
- 1.614917 2 3 tcp 1040 ------- 1 0.0 3.0 31 97
r 1.615184 3 2 ack 40 ------- 2 3.1 1.0 2 100
+ 1.615184 2 1 ack 40 ------- 2 3.1 1.0 2 100
- 1.615184 2 1 ack 40 ------- 2 3.1 1.0 2 100
r 1.616133 0 2 tcp 1040 ------- 1 0.0 3.0 32 98
+ 1.616133 2 3 tcp 1040 ------- 1 0.0 3.0 32 98
r 1.624917 2 3 tcp 1040 ------- 1 0.0 3.0 30 96
+ 1.624917 3 2 ack 40 ------- 1 3.0 0.0 31 101
- 1.624917 3 2 ack 40 ------- 1 3.0 0.0 31 101
r 1.625984 2 1 ack 40 ------- 2 3.1 1.0 2 100
- 1.635717 2 3 tcp 1040 ------- 1 0.0 3.0 32 98
r 1.635984 3 2 ack 40 ------- 1 3.0 0.0 31 101
+ 1.635984 2 0 ack 40 ------- 1 3.0 0.0 31 101
- 1.635984 2 0 ack 40 ------- 1 3.0 0.0 31 101
r 1.636933 0 2 tcp 1040 ------- 1 0.0 3.0 33 99
+ 1.636933 2 3 tcp 1040 ------- 1 0.0 3.0 33 99
r 1.645717 2 3 tcp 1040 ------- 1 0.0 3.0 31 97
+ 1.645717 3 2 ack 40 ------- 1 3.0 0.0 31 102
- 1.645717 3 2 ack 40 ------- 1 3.0 0.0 31 102
r 1.646784 2 0 ack 40 ------- 1 3.0 0.0 31 101
+ 1.646784 0 2 tcp 1040 ------- 1 0.0 3.0 34 103
- 1.646784 0 2 tcp 1040 ------- 1 0.0 3.0 34 103
+ 1.646784 0 2 tcp 1040 ------- 1 0.0 3.0 35 104
- 1.656517 2 3 tcp 1040 ------- 1 0.0 3.0 33 99
r 1.656784 3 2 ack 40 ------- 1 3.0 0.0 31 102
+ 1.656784 2 0 ack 40 ------- 1 3.0 0.0 31 102
- 1.656784 2 0 ack 40 ------- 1 3.0 0.0 31 102
r 1.666517 2 3 tcp 1040 ------- 1 0.0 3.0 32 98
+ 1.666517 3 2 ack 40 ------- 1 3.0 0.0 33 105
- 1.666517 3 2 ack 40 ------- 1 3.0 0.0 33 105
- 1.667584 0 2 tcp 1040 ------- 1 0.0 3.0 35 104
r 1.667584 2 0 ack 40 ------- 1 3.0 0.0 31 102
+ 1.667584 0 2 tcp 1040 ------- 1 0.0 3.0 36 106
r 1.677584 0 2 tcp 1040 ------- 1 0.0 3.0 34 103
+ 1.677584 2 3 tcp 1040 ------- 1 0.0 3.0 34 103
- 1.677584 2 3 tcp 1040 ------- 1 0.0 3.0 34 103
r 1.677584 3 2 ack 40 ------- 1 3.0 0.0 33 105
+ 1.677584 2 0 ack 40 ------- 1 3.0 0.0 33 105
- 1.677584 2 0 ack 40 ------- 1 3.0 0.0 33 105
r 1.687317 2 3 tcp 1040 ------- 1 0.0 3.0 33 99
+ 1.687317 3 2 ack 40 ------- 1 3.0 0.0 33 107
- 1.687317 3 2 ack 40 ------- 1 3.0 0.0 33 107
- 1.688384 0 2 tcp 1040 ------- 1 0.0 3.0 36 106
r 1.688384 2 0 ack 40 ------- 1 3.0 0.0 33 105
+ 1.688384 0 2 tcp 1040 ------- 1 0.0 3.0 37 108
+ 1.688384 0 2 tcp 1040 ------- 1 0.0 3.0 38 109
r 1.698384 0 2 tcp 1040 ------- 1 0.0 3.0 35 104
+ 1.698384 2 3 tcp 1040 ------- 1 0.0 3.0 35 104
- 1.698384 2 3 tcp 1040 ------- 1 0.0 3.0 35 104
r 1.698384 3 2 ack 40 ------- 1 3.0 0.0 33 107
+ 1.698384 2 0 ack 40 ------- 1 3.0 0.0 33 107
- 1.698384 2 0 ack 40 ------- 1 3.0 0.0 33 107
r 1.708384 2 3 tcp 1040 ------- 1 0.0 3.0 34 103
+ 1.708384 3 2 ack 40 ------- 1 3.0 0.0 35 110
- 1.708384 3 2 ack 40 ------- 1 3.0 0.0 35 110
- 1.709184 0 2 tcp 1040 ------- 1 0.0 3.0 37 108
r 1.709184 2 0 ack 40 ------- 1 3.0 0.0 33 107
+ 1.709184 0 2 tcp 1040 ------- 1 0.0 3.0 39 111
r 1.719184 0 2 tcp 1040 ------- 1 0.0 3.0 36 106
+ 1.719184 2 3 tcp 1040 ------- 1 0.0 3.0 36 106
- 1.719184 2 3 tcp 1040 ------- 1 0.0 3.0 36 106
r 1.71945 3 2 ack 40 ------- 1 3.0 0.0 35 110
+ 1.71945 2 0 ack 40 ------- 1 3.0 0.0 35 110
- 1.71945 2 0 ack 40 ------- 1 3.0 0.0 35 110
r 1.729184 2 3 tcp 1040 ------- 1 0.0 3.0 35 104
+ 1.729184 3 2 ack 40 ------- 1 3.0 0.0 35 112
- 1.729184 3 2 ack 40 ------- 1 3.0 0.0 35 112
- 1.729984 0 2 tcp 1040 ------- 1 0.0 3.0 38 109
r 1.73025 2 0 ack 40 ------- 1 3.0 0.0 35 110
+ 1.73025 0 2 tcp 1040 ------- 1 0.0 3.0 40 113
+ 1.73025 0 2 tcp 1040 ------- 1 0.0 3.0 41 114
r 1.739984 0 2 tcp 1040 ------- 1 0.0 3.0 37 108
+ 1.739984 2 3 tcp 1040 ------- 1 0.0 3.0 37 108
- 1.739984 2 3 tcp 1040 ------- 1 0.0 3.0 37 108
r 1.74025 3 2 ack 40 ------- 1 3.0 0.0 35 112
+ 1.74025 2 0 ack 40 ------- 1 3.0 0.0 35 112
- 1.74025 2 0 ack 40 ------- 1 3.0 0.0 35 112
r 1.749984 2 3 tcp 1040 ------- 1 0.0 3.0 36 106
+ 1.749984 3 2 ack 40 ------- 1 3.0 0.0 37 115
- 1.749984 3 2 ack 40 ------- 1 3.0 0.0 37 115
- 1.750784 0 2 tcp 1040 ------- 1 0.0 3.0 39 111
r 1.75105 2 0 ack 40 ------- 1 3.0 0.0 35 112
+ 1.75105 0 2 tcp 1040 ------- 1 0.0 3.0 42 116
r 1.760784 0 2 tcp 1040 ------- 1 0.0 3.0 38 109
+ 1.760784 2 3 tcp 1040 ------- 1 0.0 3.0 38 109
- 1.760784 2 3 tcp 1040 ------- 1 0.0 3.0 38 109
r 1.76105 3 2 ack 40 ------- 1 3.0 0.0 37 115
+ 1.76105 2 0 ack 40 ------- 1 3.0 0.0 37 115
- 1.76105 2 0 ack 40 ------- 1 3.0 0.0 37 115
r 1.770784 2 3 tcp 1040 ------- 1 0.0 3.0 37 108
+ 1.770784 3 2 ack 40 ------- 1 3.0 0.0 37 117