V -t * -v 1.0a5 -a 0
A -t * -n 1 -p 0 -o 0x7fffffff -c 30 -a 1
A -t * -h 1 -m 1073741823 -s 0
c -t * -i 1 -n Blue
c -t * -i 2 -n Red
n -t * -a 0 -s 0 -S UP -v circle -c black -i black
n -t * -a 1 -s 1 -S UP -v circle -c black -i black
n -t * -a 2 -s 2 -S UP -v circle -c black -i black
n -t * -a 3 -s 3 -S UP -v circle -c black -i black
l -t * -s 0 -d 2 -S UP -r 400000 -D 0.01 -c black
l -t * -s 1 -d 2 -S UP -r 400000 -D 0.01 -c black
l -t * -s 2 -d 3 -S UP -r 400000 -D 0.01 -c black
q -t * -s 0 -d 2 -a 0.5
+ -t 0.5 -s 0 -d 2 -p tcp -e 40 -c 1 -i 0 -a 1 -x {0.0 3.0 0 ------- null}
- -t 0.5 -s 0 -d 2 -p tcp -e 40 -c 1 -i 0 -a 1 -x {0.0 3.0 0 ------- null}
h -t 0.5 -s 0 -d 2 -p tcp -e 40 -c 1 -i 0 -a 1 -x {0.0 3.0 -1 ------- null}
r -t 0.5108 -s 0 -d 2 -p tcp -e 40 -c 1 -i 0 -a 1 -x {0.0 3.0 0 ------- null}
+ -t 0.5108 -s 2 -d 3 -p tcp -e 40 -c 1 -i 0 -a 1 -x {0.0 3.0 0 ------- null}
- -t 0.5108 -s 2 -d 3 -p tcp -e 40 -c 1 -i 0 -a 1 -x {0.0 3.0 0 ------- null}
h -t 0.5108 -s 2 -d 3 -p tcp -e 40 -c 1 -i 0 -a 1 -x {0.0 3.0 -1 ------- null}
r -t 0.5216 -s 2 -d 3 -p tcp -e 40 -c 1 -i 0 -a 1 -x {0.0 3.0 0 ------- null}
+ -t 0.5216 -s 3 -d 2 -p ack -e 40 -c 1 -i 1 -a 1 -x {3.0 0.0 0 ------- null}
- -t 0.5216 -s 3 -d 2 -p ack -e 40 -c 1 -i 1 -a 1 -x {3.0 0.0 0 ------- null}
h -t 0.5216 -s 3 -d 2 -p ack -e 40 -c 1 -i 1 -a 1 -x {3.0 0.0 -1 ------- null}
r -t 0.532666666666667 -s 3 -d 2 -p ack -e 40 -c 1 -i 1 -a 1 -x {3.0 0.0 0 ------- null}
+ -t 0.532666666666667 -s 2 -d 0 -p ack -e 40 -c 1 -i 1 -a 1 -x {3.0 0.0 0 ------- null}
- -t 0.532666666666667 -s 2 -d 0 -p ack -e 40 -c 1 -i 1 -a 1 -x {3.0 0.0 0 ------- null}
h -t 0.532666666666667 -s 2 -d 0 -p ack -e 40 -c 1 -i 1 -a 1 -x {3.0 0.0 -1 ------- null}
r -t 0.543466666666667 -s 2 -d 0 -p ack -e 40 -c 1 -i 1 -a 1 -x {3.0 0.0 0 ------- null}
+ -t 0.543466666666667 -s 0 -d 2 -p tcp -e 1040 -c 1 -i 2 -a 1 -x {0.0 3.0 1 ------- null}
- -t 0.543466666666667 -s 0 -d 2 -p tcp -e 1040 -c 1 -i 2 -a 1 -x {0.0 3.0 1 ------- null}
h -t 0.543466666666667 -s 0 -d 2 -p tcp -e 1040 -c 1 -i 2 -a 1 -x {0.0 3.0 -1 ------- null}
+ -t 0.543466666666667 -s 0 -d 2 -p tcp -e 1040 -c 1 -i 3 -a 1 -x {0.0 3.0 2 ------- null}
- -t 0.564266666666667 -s 0 -d 2 -p tcp -e 1040 -c 1 -i 3 -a 1 -x {0.0 3.0 2 ------- null}
h -t 0.564266666666667 -s 0 -d 2 -p tcp -e 1040 -c 1 -i 3 -a 1 -x {0.0 3.0 -1 ------- null}
r -t 0.574266666666667 -s 0 -d 2 -p tcp -e 1040 -c 1 -i 2 -a 1 -x {0.0 3.0 1 ------- null}
+ -t 0.574266666666667 -s 2 -d 3 -p tcp -e 1040 -c 1 -i 2 -a 1 -x {0.0 3.0 1 ------- null}
- -t 0.574266666666667 -s 2 -d 3 -p tcp -e 1040 -c 1 -i 2 -a 1 -x {0.0 3.0 1 ------- null}
h -t 0.574266666666667 -s 2 -d 3 -p tcp -e 1040 -c 1 -i 2 -a 1 -x {0.0 3.0 -1 ------- null}
r -t 0.595066666666667 -s 0 -d 2 -p tcp -e 1040 -c 1 -i 3 -a 1 -x {0.0 3.0 2 ------- null}
+ -t 0.595066666666667 -s 2 -d 3 -p tcp -e 1040 -c 1 -i 3 -a 1 -x {0.0 3.0 2 ------- null}
- -t 0.595066666666667 -s 2 -d 3 -p tcp -e 1040 -c 1 -i 3 -a 1 -x {0.0 3.0 2 ------- null}
h -t 0.595066666666667 -s 2 -d 3 -p tcp -e 1040 -c 1 -i 3 -a 1 -x {0.0 3.0 -1 ------- null}
r -t 0.605066666666667 -s 2 -d 3 -p tcp -e 1040 -c 1 -i 2 -a 1 -x {0.0 3.0 1 ------- null}
+ -t 0.605066666666667 -s 3 -d 2 -p ack -e 40 -c 1 -i 4 -a 1 -x {3.0 0.0 1 ------- null}
- -t 0.605066666666667 -s 3 -d 2 -p ack -e 40 -c 1 -i 4 -a 1 -x {3.0 0.0 1 ------- null}
h -t 0.605066666666667 -s 3 -d 2 -p ack -e 40 -c 1 -i 4 -a 1 -x {3.0 0.0 -1 ------- null}
r -t 0.616133333333334 -s 3 -d 2 -p ack -e 40 -c 1 -i 4 -a 1 -x {3.0 0.0 1 ------- null}
+ -t 0.616133333333334 -s 2 -d 0 -p ack -e 40 -c 1 -i 4 -a 1 -x {3.0 0.0 1 ------- null}
- -t 0.616133333333334 -s 2 -d 0 -p ack -e 40 -c 1 -i 4 -a 1 -x {3.0 0.0 1 ------- null}
h -t 0.616133333333334 -s 2 -d 0 -p ack -e 40 -c 1 -i 4 -a 1 -x {3.0 0.0 -1 ------- null}
r -t 0.625866666666667 -s 2 -d 3 -p tcp -e 1040 -c 1 -i 3 -a 1 -x {0.0 3.0 2 ------- null}
+ -t 0.625866666666667 -s 3 -d 2 -p ack -e 40 -c 1 -i 5 -a 1 -x {3.0 0.0 2 ------- null}
- -t 0.625866666666667 -s 3 -d 2 -p ack -e 40 -c 1 -i 5 -a 1 -x {3.0 0.0 2 ------- null}
h -t 0.625866666666667 -s 3 -d 2 -p ack -e 40 -c 1 -i 5 -a 1 -x {3.0 0.0 -1 ------- null}
r -t 0.626933333333334 -s 2 -d 0 -p ack -e 40 -c 1 -i 4 -a 1 -x {3.0 0.0 1 ------- null}
+ -t 0.626933333333334 -s 0 -d 2 -p tcp -e 1040 -c 1 -i 6 -a 1 -x {0.0 3.0 3 ------- null}
- -t 0.626933333333334 -s 0 -d 2 -p tcp -e 1040 -c 1 -i 6 -a 1 -x {0.0 3.0 3 ------- null}
h -t 0.626933333333334 -s 0 -d 2 -p tcp -e 1040 -c 1 -i 6 -a 1 -x {0.0 3.0 -1 ------- null}
+ -t 0.626933333333334 -s 0 -d 2 -p tcp -e 1040 -c 1 -i 7 -a 1 -x {0.0 3.0 4 ------- null}
r -t 0.636933333333334 -s 3 -d 2 -p ack -e 40 -c 1 -i 5 -a 1 -x {3.0 0.0 2 ------- null}
+ -t 0.636933333333334 -s 2 -d 0 -p ack -e 40 -c 1 -i 5 -a 1 -x {3.0 0.0 2 ------- null}
- -t 0.636933333333334 -s 2 -d 0 -p ack -e 40 -c 1 -i 5 -a 1 -x {3.0 0.0 2 ------- null}
h -t 0.636933333333334 -s 2 -d 0 -p ack -e 40 -c 1 -i 5 -a 1 -x {3.0 0.0 -1 ------- null}
- -t 0.647733333333334 -s 0 -d 2 -p tcp -e 1040 -c 1 -i 7 -a 1 -x {0.0 3.0 4 ------- null}
h -t 0.647733333333334 -s 0 -d 2 -p tcp -e 1040 -c 1 -i 7 -a 1 -x {0.0 3.0 -1 ------- null}
r -t 0.647733333333334 -s 2 -d 0 -p ack -e 40 -c 1 -i 5 -a 1 -x {3.0 0.0 2 ------- null}
+ -t 0.647733333333334 -s 0 -d 2 -p tcp -e 1040 -c 1 -i 8 -a 1 -x {0.0 3.0 5 ------- null}
+ -t 0.647733333333334 -s 0 -d 2 -p tcp -e 1040 -c 1 -i 9 -a 1 -x {0.0 3.0 6 ------- null}
r -t 0.657733333333334 -s 0 -d 2 -p tcp -e 1040 -c 1 -i 6 -a 1 -x {0.0 3.0 3 ------- null}
+ -t 0.657733333333334 -s 2 -d 3 -p tcp -e 1040 -c 1 -i 6 -a 1 -x {0.0 3.0 3 ------- null}
- -t 0.657733333333334 -s 2 -d 3 -p tcp -e 1040 -c 1 -i 6 -a 1 -x {0.0 3.0 3 ------- null}
h -t 0.657733333333334 -s 2 -d 3 -p tcp -e 1040 -c 1 -i 6 -a 1 -x {0.0 3.0 -1 ------- null}
- -t 0.668533333333334 -s 0 -d 2 -p tcp -e 1040 -c 1 -i 8 -a 1 -x {0.0 3.0 5 ------- null}
h -t 0.668533333333334 -s 0 -d 2 -p tcp -e 1040 -c 1 -i 8 -a 1 -x {0.0 3.0 -1 ------- null}
r -t 0.678533333333334 -s 0 -d 2 -p tcp -e 1040 -c 1 -i 7 -a 1 -x {0.0 3.0 4 ------- null}
+ -t 0.678533333333334 -s 2 -d 3 -p tcp -e 1040 -c 1 -i 7 -a 1 -x {0.0 3.0 4 ------- null}
- -t 0.678533333333334 -s 2 -d 3 -p tcp -e 1040 -c 1 -i 7 -a 1 -x {0.0 3.0 4 ------- null}
h -t 0.678533333333334 -s 2 -d 3 -p tcp -e 1040 -c 1 -i 7 -a 1 -x {0.0 3.0 -1 ------- null}
r -t 0.688533333333334 -s 2 -d 3 -p tcp -e 1040 -c 1 -i 6 -a 1 -x {0.0 3.0 3 ------- null}
+ -t 0.688533333333334 -s 3 -d 2 -p ack -e 40 -c 1 -i 10 -a 1 -x {3.0 0.0 3 ------- null}
- -t 0.688533333333334 -s 3 -d 2 -p ack -e 40 -c 1 -i 10 -a 1 -x {3.0 0.0 3 ------- null}
h -t 0.688533333333334 -s 3 -d 2 -p ack -e 40 -c 1 -i 10 -a 1 -x {3.0 0.0 -1 ------- null}
- -t 0.689333333333334 -s 0 -d 2 -p tcp -e 1040 -c 1 -i 9 -a 1 -x {0.0 3.0 6 ------- null}
h -t 0.689333333333334 -s 0 -d 2 -p tcp -e 1040 -c 1 -i 9 -a 1 -x {0.0 3.0 -1 ------- null}
r -t 0.699333333333334 -s 0 -d 2 -p tcp -e 1040 -c 1 -i 8 -a 1 -x {0.0 3.0 5 ------- null}
+ -t 0.699333333333334 -s 2 -d 3 -p tcp -e 1040 -c 1 -i 8 -a 1 -x {0.0 3.0 5 ------- null}
- -t 0.699333333333334 -s 2 -d 3 -p tcp -e 1040 -c 1 -i 8 -a 1 -x {0.0 3.0 5 ------- null}
h -t 0.699333333333334 -s 2 -d 3 -p tcp -e 1040 -c 1 -i 8 -a 1 -x {0.0 3.0 -1 ------- null}
r -t 0.6996 -s 3 -d 2 -p ack -e 40 -c 1 -i 10 -a 1 -x {3.0 0.0 3 ------- null}
+ -t 0.6996 -s 2 -d 0 -p ack -e 40 -c 1 -i 10 -a 1 -x {3.0 0.0 3 ------- null}
- -t 0.6996 -s 2 -d 0 -p ack -e 40 -c 1 -i 10 -a 1 -x {3.0 0.0 3 ------- null}
h -t 0.6996 -s 2 -d 0 -p ack -e 40 -c 1 -i 10 -a 1 -x {3.0 0.0 -1 ------- null}
r -t 0.709333333333334 -s 2 -d 3 -p tcp -e 1040 -c 1 -i 7 -a 1 -x {0.0 3.0 4 ------- null}
+ -t 0.709333333333334 -s 3 -d 2 -p ack -e 40 -c 1 -i 11 -a 1 -x {3.0 0.0 4 ------- null}
- -t 0.709333333333334 -s 3 -d 2 -p ack -e 40 -c 1 -i 11 -a 1 -x {3.0 0.0 4 ------- null}
h -t 0.709333333333334 -s 3 -d 2 -p ack -e 40 -c 1 -i 11 -a 1 -x {3.0 0.0 -1 ------- null}
r -t 0.7104 -s 2 -d 0 -p ack -e 40 -c 1 -i 10 -a 1 -x {3.0 0.0 3 ------- null}
+ -t 0.7104 -s 0 -d 2 -p tcp -e 1040 -c 1 -i 12 -a 1 -x {0.0 3.0 7 ------- null}
- -t 0.7104 -s 0 -d 2 -p tcp -e 1040 -c 1 -i 12 -a 1 -x {0.0 3.0 7 ------- null}
h -t 0.7104 -s 0 -d 2 -p tcp -e 1040 -c 1 -i 12 -a 1 -x {0.0 3.0 -1 ------- null}
+ -t 0.7104 -s 0 -d 2 -p tcp -e 1040 -c 1 -i 13 -a 1 -x {0.0 3.0 8 ------- null}
r -t 0.720133333333334 -s 0 -d 2 -p tcp -e 1040 -c 1 -i 9 -a 1 -x {0.0 3.0 6 ------- null}
+ -t 0.720133333333334 -s 2 -d 3 -p tcp -e 1040 -c 1 -i 9 -a 1 -x {0.0 3.0 6 ------- null}
- -t 0.720133333333334 -s 2 -d 3 -p tcp -e 1040 -c 1 -i 9 -a 1 -x {0.0 3.0 6 ------- null}
h -t 0.720133333333334 -s 2 -d 3 -p tcp -e 1040 -c 1 -i 9 -a 1 -x {0.0 3.0 -1 ------- null}
r -t 0.7204 -s 3 -d 2 -p ack -e 40 -c 1 -i 11 -a 1 -x {3.0 0.0 4 ------- null}
+ -t 0.7204 -s 2 -d 0 -p ack -e 40 -c 1 -i 11 -a 1 -x {3.0 0.0 4 ------- null}
- -t 0.7204 -s 2 -d 0 -p ack -e 40 -c 1 -i 11 -a 1 -x {3.0 0.0 4 ------- null}
h -t 0.7204 -s 2 -d 0 -p ack -e 40 -c 1 -i 11 -a 1 -x {3.0 0.0 -1 ------- null}
r -t 0.730133333333334 -s 2 -d 3 -p tcp -e 1040 -c 1 -i 8 -a 1 -x {0.0 3.0 5 ------- null}
+ -t 0.730133333333334 -s 3 -d 2 -p ack -e 40 -c 1 -i 14 -a 1 -x {3.0 0.0 5 ------- null}
- -t 0.730133333333334 -s 3 -d 2 -p ack -e 40 -c 1 -i 14 -a 1 -x {3.0 0.0 5 ------- null}
h -t 0.730133333333334 -s 3 -d 2 -p ack -e 40 -c 1 -i 14 -a 1 -x {3.0 0.0 -1 ------- null}
- -t 0.7312 -s 0 -d 2 -p tcp -e 1040 -c 1 -i 13 -a 1 -x {0.0 3.0 8 ------- null}
h -t 0.7312 -s 0 -d 2 -p tcp -e 1040 -c 1 -i 13 -a 1 -x {0.0 3.0 -1 ------- null}
r -t 0.7312 -s 2 -d 0 -p ack -e 40 -c 1 -i 11 -a 1 -x {3.0 0.0 4 ------- null}
+ -t 0.7312 -s 0 -d 2 -p tcp -e 1040 -c 1 -i 15 -a 1 -x {0.0 3.0 9 ------- null}
+ -t 0.7312 -s 0 -d 2 -p tcp -e 1040 -c 1 -i 16 -a 1 -x {0.0 3.0 10 ------- null}
r -t 0.7412 -s 0 -d 2 -p tcp -e 1040 -c 1 -i 12 -a 1 -x {0.0 3.0 7 ------- null}
+ -t 0.7412 -s 2 -d 3 -p tcp -e 1040 -c 1 -i 12 -a 1 -x {0.0 3.0 7 ------- null}
- -t 0.7412 -s 2 -d 3 -p tcp -e 1040 -c 1 -i 12 -a 1 -x {0.0 3.0 7 ------- null}
h -t 0.7412 -s 2 -d 3 -p tcp -e 1040 -c 1 -i 12 -a 1 -x {0.0 3.0 -1 ------- null}
r -t 0.7412 -s 3 -d 2 -p ack -e 40 -c 1 -i 14 -a 1 -x {3.0 0.0 5 ------- null}
+ -t 0.7412 -s 2 -d 0 -p ack -e 40 -c 1 -i 14 -a 1 -x {3.0 0.0 5 ------- null}
- -t 0.7412 -s 2 -d 0 -p ack -e 40 -c 1 -i 14 -a 1 -x {3.0 0.0 5 ------- null}
h -t 0.7412 -s 2 -d 0 -p ack -e 40 -c 1 -i 14 -a 1 -x {3.0 0.0 -1 ------- null}
r -t 0.750933333333334 -s 2 -d 3 -p tcp -e 1040 -c 1 -i 9 -a 1 -x {0.0 3.0 6 ------- null}
+ -t 0.750933333333334 -s 3 -d 2 -p ack -e 40 -c 1 -i 17 -a 1 -x {3.0 0.0 6 ------- null}
- -t 0.750933333333334 -s 3 -d 2 -p ack -e 40 -c 1 -i 17 -a 1 -x {3.0 0.0 6 ------- null}
h -t 0.750933333333334 -s 3 -d 2 -p ack -e 40 -c 1 -i 17 -a 1 -x {3.0 0.0 -1 ------- null}
- -t 0.752 -s 0 -d 2 -p tcp -e 1040 -c 1 -i 15 -a 1 -x {0.0 3.0 9 ------- null}
h -t 0.752 -s 0 -d 2 -p tcp -e 1040 -c 1 -i 15 -a 1 -x {0.0 3.0 -1 ------- null}
r -t 0.752 -s 2 -d 0 -p ack -e 40 -c 1 -i 14 -a 1 -x {3.0 0.0 5 ------- null}
+ -t 0.752 -s 0 -d 2 -p tcp -e 1040 -c 1 -i 18 -a 1 -x {0.0 3.0 11 ------- null}
+ -t 0.752 -s 0 -d 2 -p tcp -e 1040 -c 1 -i 19 -a 1 -x {0.0 3.0 12 ------- null}
r -t 0.762 -s 0 -d 2 -p tcp -e 1040 -c 1 -i 13 -a 1 -x {0.0 3.0 8 ------- null}
+ -t 0.762 -s 2 -d 3 -p tcp -e 1040 -c 1 -i 13 -a 1 -x {0.0 3.0 8 ------- null}
- -t 0.762 -s 2 -d 3 -p tcp -e 1040 -c 1 -i 13 -a 1 -x {0.0 3.0 8 ------- null}
h -t 0.762 -s 2 -d 3 -p tcp -e 1040 -c 1 -i 13 -a 1 -x {0.0 3.0 -1 ------- null}
r -t 0.762 -s 3 -d 2 -p ack -e 40 -c 1 -i 17 -a 1 -x {3.0 0.0 6 ------- null}
+ -t 0.762 -s 2 -d 0 -p ack -e 40 -c 1 -i 17 -a 1 -x {3.0 0.0 6 ------- null}
- -t 0.762 -s 2 -d 0 -p ack -e 40 -c 1 -i 17 -a 1 -x {3.0 0.0 6 ------- null}
h -t 0.762 -s 2 -d 0 -p ack -e 40 -c 1 -i 17 -a 1 -x {3.0 0.0 -1 ------- null}
r -t 0.772 -s 2 -d 3 -p tcp -e 1040 -c 1 -i 12 -a 1 -x {0.0 3.0 7 ------- null}
+ -t 0.772 -s 3 -d 2 -p ack -e 40 -c 1 -i 20 -a 1 -x {3.0 0.0 7 ------- null}
- -t 0.772 -s 3 -d 2 -p ack -e 40 -c 1 -i 20 -a 1 -x {3.0 0.0 7 ------- null}
h -t 0.772 -s 3 -d 2 -p ack -e 40 -c 1 -i 20 -a 1 -x {3.0 0.0 -1 ------- null}
- -t 0.7728 -s 0 -d 2 -p tcp -e 1040 -c 1 -i 16 -a 1 -x {0.0 3.0 10 ------- null}
h -t 0.7728 -s 0 -d 2 -p tcp -e 1040 -c 1 -i 16 -a 1 -x {0.0 3.0 -1 ------- null}
r -t 0.7728 -s 2 -d 0 -p ack -e 40 -c 1 -i 17 -a 1 -x {3.0 0.0 6 ------- null}
+ -t 0.7728 -s 0 -d 2 -p tcp -e 1040 -c 1 -i 21 -a 1 -x {0.0 3.0 13 ------- null}
+ -t 0.7728 -s 0 -d 2 -p tcp -e 1040 -c 1 -i 22 -a 1 -x {0.0 3.0 14 ------- null}
r -t 0.7828 -s 0 -d 2 -p tcp -e 1040 -c 1 -i 15 -a 1 -x {0.0 3.0 9 ------- null}
+ -t 0.7828 -s 2 -d 3 -p tcp -e 1040 -c 1 -i 15 -a 1 -x {0.0 3.0 9 ------- null}
- -t 0.7828 -s 2 -d 3 -p tcp -e 1040 -c 1 -i 15 -a 1 -x {0.0 3.0 9 ------- null}
h -t 0.7828 -s 2 -d 3 -p tcp -e 1040 -c 1 -i 15 -a 1 -x {0.0 3.0 -1 ------- null}
r -t 0.783066666666667 -s 3 -d 2 -p ack -e 40 -c 1 -i 20 -a 1 -x {3.0 0.0 7 ------- null}
+ -t 0.783066666666667 -s 2 -d 0 -p ack -e 40 -c 1 -i 20 -a 1 -x {3.0 0.0 7 ------- null}
- -t 0.783066666666667 -s 2 -d 0 -p ack -e 40 -c 1 -i 20 -a 1 -x {3.0 0.0 7 ------- null}
h -t 0.783066666666667 -s 2 -d 0 -p ack -e 40 -c 1 -i 20 -a 1 -x {3.0 0.0 -1 ------- null}
r -t 0.792800000000001 -s 2 -d 3 -p tcp -e 1040 -c 1 -i 13 -a 1 -x {0.0 3.0 8 ------- null}
+ -t 0.792800000000001 -s 3 -d 2 -p ack -e 40 -c 1 -i 23 -a 1 -x {3.0 0.0 8 ------- null}
- -t 0.792800000000001 -s 3 -d 2 -p ack -e 40 -c 1 -i 23 -a 1 -x {3.0 0.0 8 ------- null}
h -t 0.792800000000001 -s 3 -d 2 -p ack -e 40 -c 1 -i 23 -a 1 -x {3.0 0.0 -1 ------- null}
- -t 0.793600000000001 -s 0 -d 2 -p tcp -e 1040 -c 1 -i 18 -a 1 -x {0.0 3.0 11 ------- null}
h -t 0.793600000000001 -s 0 -d 2 -p tcp -e 1040 -c 1 -i 18 -a 1 -x {0.0 3.0 -1 ------- null}
r -t 0.793866666666667 -s 2 -d 0 -p ack -e 40 -c 1 -i 20 -a 1 -x {3.0 0.0 7 ------- null}
+ -t 0.793866666666667 -s 0 -d 2 -p tcp -e 1040 -c 1 -i 24 -a 1 -x {0.0 3.0 15 ------- null}
+ -t 0.793866666666667 -s 0 -d 2 -p tcp -e 1040 -c 1 -i 25 -a 1 -x {0.0 3.0 16 ------- null}
r -t 0.803600000000001 -s 0 -d 2 -p tcp -e 1040 -c 1 -i 16 -a 1 -x {0.0 3.0 10 ------- null}
+ -t 0.803600000000001 -s 2 -d 3 -p tcp -e 1040 -c 1 -i 16 -a 1 -x {0.0 3.0 10 ------- null}
- -t 0.803600000000001 -s 2 -d 3 -p tcp -e 1040 -c 1 -i 16 -a 1 -x {0.0 3.0 10 ------- null}
h -t 0.803600000000001 -s 2 -d 3 -p tcp -e 1040 -c 1 -i 16 -a 1 -x {0.0 3.0 -1 ------- null}
r -t 0.803866666666667 -s 3 -d 2 -p ack -e 40 -c 1 -i 23 -a 1 -x {3.0 0.0 8 ------- null}
+ -t 0.803866666666667 -s 2 -d 0 -p ack -e 40 -c 1 -i 23 -a 1 -x {3.0 0.0 8 ------- null}
- -t 0.803866666666667 -s 2 -d 0 -p ack -e 40 -c 1 -i 23 -a 1 -x {3.0 0.0 8 ------- null}
h -t 0.803866666666667 -s 2 -d 0 -p ack -e 40 -c 1 -i 23 -a 1 -x {3.0 0.0 -1 ------- null}
r -t 0.813600000000001 -s 2 -d 3 -p tcp -e 1040 -c 1 -i 15 -a 1 -x {0.0 3.0 9 ------- null}
+ -t 0.813600000000001 -s 3 -d 2 -p ack -e 40 -c 1 -i 26 -a 1 -x {3.0 0.0 9 ------- null}
- -t 0.813600000000001 -s 3 -d 2 -p ack -e 40 -c 1 -i 26 -a 1 -x {3.0 0.0 9 ------- null}
h -t 0.813600000000001 -s 3 -d 2 -p ack -e 40 -c 1 -i 26 -a 1 -x {3.0 0.0 -1 ------- null}
- -t 0.814400000000001 -s 0 -d 2 -p tcp -e 1040 -c 1 -i 19 -a 1 -x {0.0 3.0 12 ------- null}
h -t 0.814400000000001 -s 0 -d 2 -p tcp -e 1040 -c 1 -i 19 -a 1 -x {0.0 3.0 -1 ------- null}
r -t 0.814666666666667 -s 2 -d 0 -p ack -e 40 -c 1 -i 23 -a 1 -x {3.0 0.0 8 ------- null}
+ -t 0.814666666666667 -s 0 -d 2 -p tcp -e 1040 -c 1 -i 27 -a 1 -x {0.0 3.0 17 ------- null}
+ -t 0.814666666666667 -s 0 -d 2 -p tcp -e 1040 -c 1 -i 28 -a 1 -x {0.0 3.0 18 ------- null}
r -t 0.824400000000001 -s 0 -d 2 -p tcp -e 1040 -c 1 -i 18 -a 1 -x {0.0 3.0 11 ------- null}
+ -t 0.824400000000001 -s 2 -d 3 -p tcp -e 1040 -c 1 -i 18 -a 1 -x {0.0 3.0 11 ------- null}
- -t 0.824400000000001 -s 2 -d 3 -p tcp -e 1040 -c 1 -i 18 -a 1 -x {0.0 3.0 11 ------- null}
h -t 0.824400000000001 -s 2 -d 3 -p tcp -e 1040 -c 1 -i 18 -a 1 -x {0.0 3.0 -1 ------- null}
r -t 0.824666666666667 -s 3 -d 2 -p ack -e 40 -c 1 -i 26 -a 1 -x {3.0 0.0 9 ------- null}
+ -t 0.824666666666667 -s 2 -d 0 -p ack -e 40 -c 1 -i 26 -a 1 -x {3.0 0.0 9 ------- null}
- -t 0.824666666666667 -s 2 -d 0 -p ack -e 40 -c 1 -i 26 -a 1 -x {3.0 0.0 9 ------- null}
h -t 0.824666666666667 -s 2 -d 0 -p ack -e 40 -c 1 -i 26 -a 1 -x {3.0 0.0 -1 ------- null}
r -t 0.834400000000001 -s 2 -d 3 -p tcp -e 1040 -c 1 -i 16 -a 1 -x {0.0 3.0 10 ------- null}
+ -t 0.834400000000001 -s 3 -d 2 -p ack -e 40 -c 1 -i 29 -a 1 -x {3.0 0.0 10 ------- null}
- -t 0.834400000000001 -s 3 -d 2 -p ack -e 40 -c 1 -i 29 -a 1 -x {3.0 0.0 10 ------- null}
h -t 0.834400000000001 -s 3 -d 2 -p ack -e 40 -c 1 -i 29 -a 1 -x {3.0 0.0 -1 ------- null}
- -t 0.835200000000001 -s 0 -d 2 -p tcp -e 1040 -c 1 -i 21 -a 1 -x {0.0 3.0 13 ------- null}
h -t 0.835200000000001 -s 0 -d 2 -p tcp -e 1040 -c 1 -i 21 -a 1 -x {0.0 3.0 -1 ------- null}
r -t 0.835466666666667 -s 2 -d 0 -p ack -e 40 -c 1 -i 26 -a 1 -x {3.0 0.0 9 ------- null}
+ -t 0.835466666666667 -s 0 -d 2 -p tcp -e 1040 -c 1 -i 30 -a 1 -x {0.0 3.0 19 ------- null}
+ -t 0.835466666666667 -s 0 -d 2 -p tcp -e 1040 -c 1 -i 31 -a 1 -x {0.0 3.0 20 ------- null}
r -t 0.845200000000001 -s 0 -d 2 -p tcp -e 1040 -c 1 -i 19 -a 1 -x {0.0 3.0 12 ------- null}
+ -t 0.845200000000001 -s 2 -d 3 -p tcp -e 1040 -c 1 -i 19 -a 1 -x {0.0 3.0 12 ------- null}
- -t 0.845200000000001 -s 2 -d 3 -p tcp -e 1040 -c 1 -i 19 -a 1 -x {0.0 3.0 12 ------- null}
h -t 0.845200000000001 -s 2 -d 3 -p tcp -e 1040 -c 1 -i 19 -a 1 -x {0.0 3.0 -1 ------- null}
r -t 0.845466666666667 -s 3 -d 2 -p ack -e 40 -c 1 -i 29 -a 1 -x {3.0 0.0 10 ------- null}
+ -t 0.845466666666667 -s 2 -d 0 -p ack -e 40 -c 1 -i 29 -a 1 -x {3.0 0.0 10 ------- null}
- -t 0.845466666666667 -s 2 -d 0 -p ack -e 40 -c 1 -i 29 -a 1 -x {3.0 0.0 10 ------- null}
h -t 0.845466666666667 -s 2 -d 0 -p ack -e 40 -c 1 -i 29 -a 1 -x {3.0 0.0 -1 ------- null}
r -t 0.855200000000001 -s 2 -d 3 -p tcp -e 1040 -c 1 -i 18 -a 1 -x {0.0 3.0 11 ------- null}
+ -t 0.855200000000001 -s 3 -d 2 -p ack -e 40 -c 1 -i 32 -a 1 -x {3.0 0.0 11 ------- null}
- -t 0.855200000000001 -s 3 -d 2 -p ack -e 40 -c 1 -i 32 -a 1 -x {3.0 0.0 11 ------- null}
h -t 0.855200000000001 -s 3 -d 2 -p ack -e 40 -c 1 -i 32 -a 1 -x {3.0 0.0 -1 ------- null}
- -t 0.856000000000001 -s 0 -d 2 -p tcp -e 1040 -c 1 -i 22 -a 1 -x {0.0 3.0 14 ------- null}
h -t 0.856000000000001 -s 0 -d 2 -p tcp -e 1040 -c 1 -i 22 -a 1 -x {0.0 3.0 -1 ------- null}
r -t 0.856266666666667 -s 2 -d 0 -p ack -e 40 -c 1 -i 29 -a 1 -x {3.0 0.0 10 ------- null}
+ -t 0.856266666666667 -s 0 -d 2 -p tcp -e 1040 -c 1 -i 33 -a 1 -x {0.0 3.0 21 ------- null}
+ -t 0.856266666666667 -s 0 -d 2 -p tcp -e 1040 -c 1 -i 34 -a 1 -x {0.0 3.0 22 ------- null}
r -t 0.866000000000001 -s 0 -d 2 -p tcp -e 1040 -c 1 -i 21 -a 1 -x {0.0 3.0 13 ------- null}
+ -t 0.866000000000001 -s 2 -d 3 -p tcp -e 1040 -c 1 -i 21 -a 1 -x {0.0 3.0 13 ------- null}
- -t 0.866000000000001 -s 2 -d 3 -p tcp -e 1040 -c 1 -i 21 -a 1 -x {0.0 3.0 13 ------- null}
h -t 0.866000000000001 -s 2 -d 3 -p tcp -e 1040 -c 1 -i 21 -a 1 -x {0.0 3.0 -1 ------- null}
r -t 0.866266666666667 -s 3 -d 2 -p ack -e 40 -c 1 -i 32 -a 1 -x {3.0 0.0 11 ------- null}
+ -t 0.866266666666667 -s 2 -d 0 -p ack -e 40 -c 1 -i 32 -a 1 -x {3.0 0.0 11 ------- null}
- -t 0.866266666666667 -s 2 -d 0 -p ack -e 40 -c 1 -i 32 -a 1 -x {3.0 0.0 11 ------- null}
h -t 0.866266666666667 -s 2 -d 0 -p ack -e 40 -c 1 -i 32 -a 1 -x {3.0 0.0 -1 ------- null}
r -t 0.876000000000001 -s 2 -d 3 -p tcp -e 1040 -c 1 -i 19 -a 1 -x {0.0 3.0 12 ------- null}
+ -t 0.876000000000001 -s 3 -d 2 -p ack -e 40 -c 1 -i 35 -a 1 -x {3.0 0.0 12 ------- null}
- -t 0.876000000000001 -s 3 -d 2 -p ack -e 40 -c 1 -i 35 -a 1 -x {3.0 0.0 12 ------- null}
h -t 0.876000000000001 -s 3 -d 2 -p ack -e 40 -c 1 -i 35 -a 1 -x {3.0 0.0 -1 ------- null}
- -t 0.876800000000001 -s 0 -d 2 -p tcp -e 1040 -c 1 -i 24 -a 1 -x {0.0 3.0 15 ------- null}
h -t 0.876800000000001 -s 0 -d 2 -p tcp -e 1040 -c 1 -i 24 -a 1 -x {0.0 3.0 -1 ------- null}
r -t 0.877066666666667 -s 2 -d 0 -p ack -e 40 -c 1 -i 32 -a 1 -x {3.0 0.0 11 ------- null}
+ -t 0.877066666666667 -s 0 -d 2 -p tcp -e 1040 -c 1 -i 36 -a 1 -x {0.0 3.0 23 ------- null}
+ -t 0.877066666666667 -s 0 -d 2 -p tcp -e 1040 -c 1 -i 37 -a 1 -x {0.0 3.0 24 ------- null}
r -t 0.886800000000001 -s 0 -d 2 -p tcp -e 1040 -c 1 -i 22 -a 1 -x {0.0 3.0 14 ------- null}
+ -t 0.886800000000001 -s 2 -d 3 -p tcp -e 1040 -c 1 -i 22 -a 1 -x {0.0 3.0 14 ------- null}
- -t 0.886800000000001 -s 2 -d 3 -p tcp -e 1040 -c 1 -i 22 -a 1 -x {0.0 3.0 14 ------- null}
h -t 0.886800000000001 -s 2 -d 3 -p tcp -e 1040 -c 1 -i 22 -a 1 -x {0.0 3.0 -1 ------- null}
r -t 0.887066666666667 -s 3 -d 2 -p ack -e 40 -c 1 -i 35 -a 1 -x {3.0 0.0 12 ------- null}
+ -t 0.887066666666667 -s 2 -d 0 -p ack -e 40 -c 1 -i 35 -a 1 -x {3.0 0.0 12 ------- null}
- -t 0.887066666666667 -s 2 -d 0 -p ack -e 40 -c 1 -i 35 -a 1 -x {3.0 0.0 12 ------- null}
h -t 0.887066666666667 -s 2 -d 0 -p ack -e 40 -c 1 -i 35 -a 1 -x {3.0 0.0 -1 ------- null}
r -t 0.896800000000001 -s 2 -d 3 -p tcp -e 1040 -c 1 -i 21 -a 1 -x {0.0 3.0 13 ------- null}
+ -t 0.896800000000001 -s 3 -d 2 -p ack -e 40 -c 1 -i 38 -a 1 -x {3.0 0.0 13 ------- null}
- -t 0.896800000000001 -s 3 -d 2 -p ack -e 40 -c 1 -i 38 -a 1 -x {3.0 0.0 13 ------- null}
h -t 0.896800000000001 -s 3 -d 2 -p ack -e 40 -c 1 -i 38 -a 1 -x {3.0 0.0 -1 ------- null}
- -t 0.897600000000001 -s 0 -d 2 -p tcp -e 1040 -c 1 -i 25 -a 1 -x {0.0 3.0 16 ------- null}
h -t 0.897600000000001 -s 0 -d 2 -p tcp -e 1040 -c 1 -i 25 -a 1 -x {0.0 3.0 -1 ------- null}
r -t 0.897866666666667 -s 2 -d 0 -p ack -e 40 -c 1 -i 35 -a 1 -x {3.0 0.0 12 ------- null}
+ -t 0.897866666666667 -s 0 -d 2 -p tcp -e 1040 -c 1 -i 39 -a 1 -x {0.0 3.0 25 ------- null}
+ -t 0.897866666666667 -s 0 -d 2 -p tcp -e 1040 -c 1 -i 40 -a 1 -x {0.0 3.0 26 ------- null}
d -t 0.897866666666667 -s 0 -d 2 -p tcp -e 1040 -c 1 -i 40 -a 1 -x {0.0 3.0 26 ------- null}
r -t 0.907600000000001 -s 0 -d 2 -p tcp -e 1040 -c 1 -i 24 -a 1 -x {0.0 3.0 15 ------- null}
+ -t 0.907600000000001 -s 2 -d 3 -p tcp -e 1040 -c 1 -i 24 -a 1 -x {0.0 3.0 15 ------- null}
- -t 0.907600000000001 -s 2 -d 3 -p tcp -e 1040 -c 1 -i 24 -a 1 -x {0.0 3.0 15 ------- null}
h -t 0.907600000000001 -s 2 -d 3 -p tcp -e 1040 -c 1 -i 24 -a 1 -x {0.0 3.0 -1 ------- null}
r -t 0.907866666666667 -s 3 -d 2 -p ack -e 40 -c 1 -i 38 -a 1 -x {3.0 0.0 13 ------- null}
+ -t 0.907866666666667 -s 2 -d 0 -p ack -e 40 -c 1 -i 38 -a 1 -x {3.0 0.0 13 ------- null}
- -t 0.907866666666667 -s 2 -d 0 -p ack -e 40 -c 1 -i 38 -a 1 -x {3.0 0.0 13 ------- null}
h -t 0.907866666666667 -s 2 -d 0 -p ack -e 40 -c 1 -i 38 -a 1 -x {3.0 0.0 -1 ------- null}
r -t 0.917600000000001 -s 2 -d 3 -p tcp -e 1040 -c 1 -i 22 -a 1 -x {0.0 3.0 14 ------- null}
+ -t 0.917600000000001 -s 3 -d 2 -p ack -e 40 -c 1 -i 41 -a 1 -x {3.0 0.0 14 ------- null}
- -t 0.917600000000001 -s 3 -d 2 -p ack -e 40 -c 1 -i 41 -a 1 -x {3.0 0.0 14 ------- null}
h -t 0.917600000000001 -s 3 -d 2 -p ack -e 40 -c 1 -i 41 -a 1 -x {3.0 0.0 -1 ------- null}
- -t 0.918400000000001 -s 0 -d 2 -p tcp -e 1040 -c 1 -i 27 -a 1 -x {0.0 3.0 17 ------- null}
h -t 0.918400000000001 -s 0 -d 2 -p tcp -e 1040 -c 1 -i 27 -a 1 -x {0.0 3.0 -1 ------- null}
r -t 0.918666666666667 -s 2 -d 0 -p ack -e 40 -c 1 -i 38 -a 1 -x {3.0 0.0 13 ------- null}
+ -t 0.918666666666667 -s 0 -d 2 -p tcp -e 1040 -c 1 -i 42 -a 1 -x {0.0 3.0 27 ------- null}
+ -t 0.918666666666667 -s 0 -d 2 -p tcp -e 1040 -c 1 -i 43 -a 1 -x {0.0 3.0 28 ------- null}
d -t 0.918666666666667 -s 0 -d 2 -p tcp -e 1040 -c 1 -i 43 -a 1 -x {0.0 3.0 28 ------- null}
r -t 0.928400000000001 -s 0 -d 2 -p tcp -e 1040 -c 1 -i 25 -a 1 -x {0.0 3.0 16 ------- null}
+ -t 0.928400000000001 -s 2 -d 3 -p tcp -e 1040 -c 1 -i 25 -a 1 -x {0.0 3.0 16 ------- null}
- -t 0.928400000000001 -s 2 -d 3 -p tcp -e 1040 -c 1 -i 25 -a 1 -x {0.0 3.0 16 ------- null}
h -t 0.928400000000001 -s 2 -d 3 -p tcp -e 1040 -c 1 -i 25 -a 1 -x {0.0 3.0 -1 ------- null}
r -t 0.928666666666667 -s 3 -d 2 -p ack -e 40 -c 1 -i 41 -a 1 -x {3.0 0.0 14 ------- null}
+ -t 0.928666666666667 -s 2 -d 0 -p ack -e 40 -c 1 -i 41 -a 1 -x {3.0 0.0 14 ------- null}
- -t 0.928666666666667 -s 2 -d 0 -p ack -e 40 -c 1 -i 41 -a 1 -x {3.0 0.0 14 ------- null}
h -t 0.928666666666667 -s 2 -d 0 -p ack -e 40 -c 1 -i 41 -a 1 -x {3.0 0.0 -1 ------- null}
r -t 0.938400000000001 -s 2 -d 3 -p tcp -e 1040 -c 1 -i 24 -a 1 -x {0.0 3.0 15 ------- null}
+ -t 0.938400000000001 -s 3 -d 2 -p ack -e 40 -c 1 -i 44 -a 1 -x {3.0 0.0 15 ------- null}
- -t 0.938400000000001 -s 3 -d 2 -p ack -e 40 -c 1 -i 44 -a 1 -x {3.0 0.0 15 ------- null}
h -t 0.938400000000001 -s 3 -d 2 -p ack -e 40 -c 1 -i 44 -a 1 -x {3.0 0.0 -1 ------- null}
- -t 0.939200000000001 -s 0 -d 2 -p tcp -e 1040 -c 1 -i 28 -a 1 -x {0.0 3.0 18 ------- null}
h -t 0.939200000000001 -s 0 -d 2 -p tcp -e 1040 -c 1 -i 28 -a 1 -x {0.0 3.0 -1 ------- null}
r -t 0.939466666666667 -s 2 -d 0 -p ack -e 40 -c 1 -i 41 -a 1 -x {3.0 0.0 14 ------- null}
+ -t 0.939466666666667 -s 0 -d 2 -p tcp -e 1040 -c 1 -i 45 -a 1 -x {0.0 3.0 29 ------- null}
+ -t 0.939466666666667 -s 0 -d 2 -p tcp -e 1040 -c 1 -i 46 -a 1 -x {0.0 3.0 30 ------- null}
d -t 0.939466666666667 -s 0 -d 2 -p tcp -e 1040 -c 1 -i 46 -a 1 -x {0.0 3.0 30 ------- null}
r -t 0.949200000000001 -s 0 -d 2 -p tcp -e 1040 -c 1 -i 27 -a 1 -x {0.0 3.0 17 ------- null}
+ -t 0.949200000000001 -s 2 -d 3 -p tcp -e 1040 -c 1 -i 27 -a 1 -x {0.0 3.0 17 ------- null}
- -t 0.949200000000001 -s 2 -d 3 -p tcp -e 1040 -c 1 -i 27 -a 1 -x {0.0 3.0 17 ------- null}
h -t 0.949200000000001 -s 2 -d 3 -p tcp -e 1040 -c 1 -i 27 -a 1 -x {0.0 3.0 -1 ------- null}
r -t 0.949466666666667 -s 3 -d 2 -p ack -e 40 -c 1 -i 44 -a 1 -x {3.0 0.0 15 ------- null}
+ -t 0.949466666666667 -s 2 -d 0 -p ack -e 40 -c 1 -i 44 -a 1 -x {3.0 0.0 15 ------- null}
- -t 0.949466666666667 -s 2 -d 0 -p ack -e 40 -c 1 -i 44 -a 1 -x {3.0 0.0 15 ------- null}
h -t 0.949466666666667 -s 2 -d 0 -p ack -e 40 -c 1 -i 44 -a 1 -x {3.0 0.0 -1 ------- null}
r -t 0.959200000000001 -s 2 -d 3 -p tcp -e 1040 -c 1 -i 25 -a 1 -x {0.0 3.0 16 ------- null}
+ -t 0.959200000000001 -s 3 -d 2 -p ack -e 40 -c 1 -i 47 -a 1 -x {3.0 0.0 16 ------- null}
- -t 0.959200000000001 -s 3 -d 2 -p ack -e 40 -c 1 -i 47 -a 1 -x {3.0 0.0 16 ------- null}
h -t 0.959200000000001 -s 3 -d 2 -p ack -e 40 -c 1 -i 47 -a 1 -x {3.0 0.0 -1 ------- null}
- -t 0.960000000000001 -s 0 -d 2 -p tcp -e 1040 -c 1 -i 30 -a 1 -x {0.0 3.0 19 ------- null}
h -t 0.960000000000001 -s 0 -d 2 -p tcp -e 1040 -c 1 -i 30 -a 1 -x {0.0 3.0 -1 ------- null}
r -t 0.960266666666667 -s 2 -d 0 -p ack -e 40 -c 1 -i 44 -a 1 -x {3.0 0.0 15 ------- null}
+ -t 0.960266666666667 -s 0 -d 2 -p tcp -e 1040 -c 1 -i 48 -a 1 -x {0.0 3.0 31 ------- null}
+ -t 0.960266666666667 -s 0 -d 2 -p tcp -e 1040 -c 1 -i 49 -a 1 -x {0.0 3.0 32 ------- null}
d -t 0.960266666666667 -s 0 -d 2 -p tcp -e 1040 -c 1 -i 49 -a 1 -x {0.0 3.0 32 ------- null}
r -t 0.970000000000001 -s 0 -d 2 -p tcp -e 1040 -c 1 -i 28 -a 1 -x {0.0 3.0 18 ------- null}
+ -t 0.970000000000001 -s 2 -d 3 -p tcp -e 1040 -c 1 -i 28 -a 1 -x {0.0 3.0 18 ------- null}
- -t 0.970000000000001 -s 2 -d 3 -p tcp -e 1040 -c 1 -i 28 -a 1 -x {0.0 3.0 18 ------- null}
h -t 0.970000000000001 -s 2 -d 3 -p tcp -e 1040 -c 1 -i 28 -a 1 -x {0.0 3.0 -1 ------- null}
r -t 0.970266666666667 -s 3 -d 2 -p ack -e 40 -c 1 -i 47 -a 1 -x {3.0 0.0 16 ------- null}
+ -t 0.970266666666667 -s 2 -d 0 -p ack -e 40 -c 1 -i 47 -a 1 -x {3.0 0.0 16 ------- null}
- -t 0.970266666666667 -s 2 -d 0 -p ack -e 40 -c 1 -i 47 -a 1 -x {3.0 0.0 16 ------- null}
h -t 0.970266666666667 -s 2 -d 0 -p ack -e 40 -c 1 -i 47 -a 1 -x {3.0 0.0 -1 ------- null}
r -t 0.980000000000001 -s 2 -d 3 -p tcp -e 1040 -c 1 -i 27 -a 1 -x {0.0 3.0 17 ------- null}
+ -t 0.980000000000001 -s 3 -d 2 -p ack -e 40 -c 1 -i 50 -a 1 -x {3.0 0.0 17 ------- null}
- -t 0.980000000000001 -s 3 -d 2 -p ack -e 40 -c 1 -i 50 -a 1 -x {3.0 0.0 17 ------- null}
h -t 0.980000000000001 -s 3 -d 2 -p ack -e 40 -c 1 -i 50 -a 1 -x {3.0 0.0 -1 ------- null}
- -t 0.980800000000001 -s 0 -d 2 -p tcp -e 1040 -c 1 -i 31 -a 1 -x {0.0 3.0 20 ------- null}
h -t 0.980800000000001 -s 0 -d 2 -p tcp -e 1040 -c 1 -i 31 -a 1 -x {0.0 3.0 -1 ------- null}
r -t 0.981066666666668 -s 2 -d 0 -p ack -e 40 -c 1 -i 47 -a 1 -x {3.0 0.0 16 ------- null}
+ -t 0.981066666666668 -s 0 -d 2 -p tcp -e 1040 -c 1 -i 51 -a 1 -x {0.0 3.0 33 ------- null}
+ -t 0.981066666666668 -s 0 -d 2 -p tcp -e 1040 -c 1 -i 52 -a 1 -x {0.0 3.0 34 ------- null}
d -t 0.981066666666668 -s 0 -d 2 -p tcp -e 1040 -c 1 -i 52 -a 1 -x {0.0 3.0 34 ------- null}
r -t 0.990800000000001 -s 0 -d 2 -p tcp -e 1040 -c 1 -i 30 -a 1 -x {0.0 3.0 19 ------- null}
+ -t 0.990800000000001 -s 2 -d 3 -p tcp -e 1040 -c 1 -i 30 -a 1 -x {0.0 3.0 19 ------- null}
- -t 0.990800000000001 -s 2 -d 3 -p tcp -e 1040 -c 1 -i 30 -a 1 -x {0.0 3.0 19 ------- null}
h -t 0.990800000000001 -s 2 -d 3 -p tcp -e 1040 -c 1 -i 30 -a 1 -x {0.0 3.0 -1 ------- null}
r -t 0.991066666666668 -s 3 -d 2 -p ack -e 40 -c 1 -i 50 -a 1 -x {3.0 0.0 17 ------- null}
+ -t 0.991066666666668 -s 2 -d 0 -p ack -e 40 -c 1 -i 50 -a 1 -x {3.0 0.0 17 ------- null}
- -t 0.991066666666668 -s 2 -d 0 -p ack -e 40 -c 1 -i 50 -a 1 -x {3.0 0.0 17 ------- null}
h -t 0.991066666666668 -s 2 -d 0 -p ack -e 40 -c 1 -i 50 -a 1 -x {3.0 0.0 -1 ------- null}
r -t 1.0008 -s 2 -d 3 -p tcp -e 1040 -c 1 -i 28 -a 1 -x {0.0 3.0 18 ------- null}
+ -t 1.0008 -s 3 -d 2 -p ack -e 40 -c 1 -i 53 -a 1 -x {3.0 0.0 18 ------- null}
- -t 1.0008 -s 3 -d 2 -p ack -e 40 -c 1 -i 53 -a 1 -x {3.0 0.0 18 ------- null}
h -t 1.0008 -s 3 -d 2 -p ack -e 40 -c 1 -i 53 -a 1 -x {3.0 0.0 -1 ------- null}
- -t 1.0016 -s 0 -d 2 -p tcp -e 1040 -c 1 -i 33 -a 1 -x {0.0 3.0 21 ------- null}
h -t 1.0016 -s 0 -d 2 -p tcp -e 1040 -c 1 -i 33 -a 1 -x {0.0 3.0 -1 ------- null}
r -t 1.00186666666667 -s 2 -d 0 -p ack -e 40 -c 1 -i 50 -a 1 -x {3.0 0.0 17 ------- null}
+ -t 1.00186666666667 -s 0 -d 2 -p tcp -e 1040 -c 1 -i 54 -a 1 -x {0.0 3.0 35 ------- null}