+ 0.6 1 2 tcp 40 ------- 0 1.0 3.1 0 0
- 0.6 1 2 tcp 40 ------- 0 1.0 3.1 0 0
r 0.6164 1 2 tcp 40 ------- 0 1.0 3.1 0 0
+ 0.6164 2 3 tcp 40 ------- 0 1.0 3.1 0 0
- 0.6164 2 3 tcp 40 ------- 0 1.0 3.1 0 0
r 0.626756 2 3 tcp 40 ------- 0 1.0 3.1 0 0
+ 0.626756 3 2 ack 40 ------- 0 3.1 1.0 0 1
- 0.626756 3 2 ack 40 ------- 0 3.1 1.0 0 1
r 0.637111 3 2 ack 40 ------- 0 3.1 1.0 0 1
+ 0.637111 2 1 ack 40 ------- 0 3.1 1.0 0 1
- 0.637111 2 1 ack 40 ------- 0 3.1 1.0 0 1
r 0.653511 2 1 ack 40 ------- 0 3.1 1.0 0 1
+ 0.653511 1 2 tcp 1040 ------- 0 1.0 3.1 1 2
- 0.653511 1 2 tcp 1040 ------- 0 1.0 3.1 1 2
+ 0.653511 1 2 tcp 1040 ------- 0 1.0 3.1 2 3
+ 0.70779 0 2 tcp 40 ------- 0 0.0 3.0 0 4
- 0.70779 0 2 tcp 40 ------- 0 0.0 3.0 0 4
r 0.72419 0 2 tcp 40 ------- 0 0.0 3.0 0 4
+ 0.72419 2 3 tcp 40 ------- 0 0.0 3.0 0 4
- 0.72419 2 3 tcp 40 ------- 0 0.0 3.0 0 4
r 0.734546 2 3 tcp 40 ------- 0 0.0 3.0 0 4
+ 0.734546 3 2 ack 40 ------- 0 3.0 0.0 0 5
- 0.734546 3 2 ack 40 ------- 0 3.0 0.0 0 5
r 0.744901 3 2 ack 40 ------- 0 3.0 0.0 0 5
+ 0.744901 2 0 ack 40 ------- 0 3.0 0.0 0 5
- 0.744901 2 0 ack 40 ------- 0 3.0 0.0 0 5
r 0.761301 2 0 ack 40 ------- 0 3.0 0.0 0 5
+ 0.761301 0 2 tcp 1040 ------- 0 0.0 3.0 1 6
- 0.761301 0 2 tcp 1040 ------- 0 0.0 3.0 1 6
- 0.819911 1 2 tcp 1040 ------- 0 1.0 3.1 2 3
r 0.829911 1 2 tcp 1040 ------- 0 1.0 3.1 1 2
+ 0.829911 2 3 tcp 1040 ------- 0 1.0 3.1 1 2
- 0.829911 2 3 tcp 1040 ------- 0 1.0 3.1 1 2
r 0.849156 2 3 tcp 1040 ------- 0 1.0 3.1 1 2
+ 0.849156 3 2 ack 40 ------- 0 3.1 1.0 1 7
- 0.849156 3 2 ack 40 ------- 0 3.1 1.0 1 7
+ 0.853511 1 2 tcp 1040 ---A--- 0 1.0 3.1 1 8
r 0.859511 3 2 ack 40 ------- 0 3.1 1.0 1 7
+ 0.859511 2 1 ack 40 ------- 0 3.1 1.0 1 7
- 0.859511 2 1 ack 40 ------- 0 3.1 1.0 1 7
r 0.875911 2 1 ack 40 ------- 0 3.1 1.0 1 7
+ 0.875911 1 2 tcp 1040 ------- 0 1.0 3.1 2 9
+ 0.875911 1 2 tcp 1040 ------- 0 1.0 3.1 3 10
r 0.937701 0 2 tcp 1040 ------- 0 0.0 3.0 1 6
+ 0.937701 2 3 tcp 1040 ------- 0 0.0 3.0 1 6
- 0.937701 2 3 tcp 1040 ------- 0 0.0 3.0 1 6
r 0.956946 2 3 tcp 1040 ------- 0 0.0 3.0 1 6
+ 0.956946 3 2 ack 40 ------- 0 3.0 0.0 1 11
- 0.956946 3 2 ack 40 ------- 0 3.0 0.0 1 11
+ 0.961301 0 2 tcp 1040 ---A--- 0 0.0 3.0 1 12
- 0.961301 0 2 tcp 1040 ---A--- 0 0.0 3.0 1 12
r 0.967301 3 2 ack 40 ------- 0 3.0 0.0 1 11
+ 0.967301 2 0 ack 40 ------- 0 3.0 0.0 1 11
- 0.967301 2 0 ack 40 ------- 0 3.0 0.0 1 11
r 0.983701 2 0 ack 40 ------- 0 3.0 0.0 1 11
- 0.986311 1 2 tcp 1040 ---A--- 0 1.0 3.1 1 8
r 0.996311 1 2 tcp 1040 ------- 0 1.0 3.1 2 3
+ 0.996311 2 3 tcp 1040 ------- 0 1.0 3.1 2 3
- 0.996311 2 3 tcp 1040 ------- 0 1.0 3.1 2 3
r 1.015556 2 3 tcp 1040 ------- 0 1.0 3.1 2 3
+ 1.015556 3 2 ack 40 ------- 0 3.1 1.0 2 13
- 1.015556 3 2 ack 40 ------- 0 3.1 1.0 2 13
r 1.025911 3 2 ack 40 ------- 0 3.1 1.0 2 13
+ 1.025911 2 1 ack 40 ------- 0 3.1 1.0 2 13
- 1.025911 2 1 ack 40 ------- 0 3.1 1.0 2 13
r 1.042311 2 1 ack 40 ------- 0 3.1 1.0 2 13
+ 1.042311 1 2 tcp 1040 ------- 0 1.0 3.1 4 14
r 1.137701 0 2 tcp 1040 ---A--- 0 0.0 3.0 1 12
+ 1.137701 2 3 tcp 1040 ---A--- 0 0.0 3.0 1 12
- 1.137701 2 3 tcp 1040 ---A--- 0 0.0 3.0 1 12
- 1.152711 1 2 tcp 1040 ------- 0 1.0 3.1 2 9
r 1.156946 2 3 tcp 1040 ---A--- 0 0.0 3.0 1 12
+ 1.156946 3 2 ack 40 ------- 0 3.0 0.0 1 15
- 1.156946 3 2 ack 40 ------- 0 3.0 0.0 1 15
r 1.162711 1 2 tcp 1040 ---A--- 0 1.0 3.1 1 8
+ 1.162711 2 3 tcp 1040 ---A--- 0 1.0 3.1 1 8
- 1.162711 2 3 tcp 1040 ---A--- 0 1.0 3.1 1 8
r 1.167301 3 2 ack 40 ------- 0 3.0 0.0 1 15
+ 1.167301 2 0 ack 40 ------- 0 3.0 0.0 1 15
- 1.167301 2 0 ack 40 ------- 0 3.0 0.0 1 15
r 1.181956 2 3 tcp 1040 ---A--- 0 1.0 3.1 1 8
+ 1.181956 3 2 ack 40 ------- 0 3.1 1.0 2 16
- 1.181956 3 2 ack 40 ------- 0 3.1 1.0 2 16
r 1.183701 2 0 ack 40 ------- 0 3.0 0.0 1 15
r 1.192311 3 2 ack 40 ------- 0 3.1 1.0 2 16
+ 1.192311 2 1 ack 40 ------- 0 3.1 1.0 2 16
- 1.192311 2 1 ack 40 ------- 0 3.1 1.0 2 16
r 1.208711 2 1 ack 40 ------- 0 3.1 1.0 2 16
+ 1.208711 1 2 tcp 1040 ------- 0 1.0 3.1 5 17
- 1.319111 1 2 tcp 1040 ------- 0 1.0 3.1 3 10
r 1.329111 1 2 tcp 1040 ------- 0 1.0 3.1 2 9
+ 1.329111 2 3 tcp 1040 ------- 0 1.0 3.1 2 9
- 1.329111 2 3 tcp 1040 ------- 0 1.0 3.1 2 9
r 1.348356 2 3 tcp 1040 ------- 0 1.0 3.1 2 9
+ 1.348356 3 2 ack 40 ------- 0 3.1 1.0 2 18
- 1.348356 3 2 ack 40 ------- 0 3.1 1.0 2 18
r 1.358711 3 2 ack 40 ------- 0 3.1 1.0 2 18
+ 1.358711 2 1 ack 40 ------- 0 3.1 1.0 2 18
- 1.358711 2 1 ack 40 ------- 0 3.1 1.0 2 18
r 1.375111 2 1 ack 40 ------- 0 3.1 1.0 2 18
+ 1.375111 1 2 tcp 1040 ------- 0 1.0 3.1 6 19
+ 1.431391 0 2 tcp 1040 ---A--- 0 0.0 3.0 2 20
- 1.431391 0 2 tcp 1040 ---A--- 0 0.0 3.0 2 20
+ 1.442311 1 2 tcp 1040 ---A--- 0 1.0 3.1 3 21
- 1.485511 1 2 tcp 1040 ------- 0 1.0 3.1 4 14
r 1.495511 1 2 tcp 1040 ------- 0 1.0 3.1 3 10
+ 1.495511 2 3 tcp 1040 ------- 0 1.0 3.1 3 10
- 1.495511 2 3 tcp 1040 ------- 0 1.0 3.1 3 10
r 1.514756 2 3 tcp 1040 ------- 0 1.0 3.1 3 10
+ 1.514756 3 2 ack 40 ------- 0 3.1 1.0 3 22
- 1.514756 3 2 ack 40 ------- 0 3.1 1.0 3 22
r 1.525111 3 2 ack 40 ------- 0 3.1 1.0 3 22
+ 1.525111 2 1 ack 40 ------- 0 3.1 1.0 3 22
- 1.525111 2 1 ack 40 ------- 0 3.1 1.0 3 22
r 1.541511 2 1 ack 40 ------- 0 3.1 1.0 3 22
+ 1.541511 1 2 tcp 1040 ------- 0 1.0 3.1 4 23
+ 1.541511 1 2 tcp 1040 ------- 0 1.0 3.1 5 24
r 1.607791 0 2 tcp 1040 ---A--- 0 0.0 3.0 2 20
+ 1.607791 2 3 tcp 1040 ---A--- 0 0.0 3.0 2 20
- 1.607791 2 3 tcp 1040 ---A--- 0 0.0 3.0 2 20
r 1.627035 2 3 tcp 1040 ---A--- 0 0.0 3.0 2 20
+ 1.627035 3 2 ack 40 ------- 0 3.0 0.0 2 25
- 1.627035 3 2 ack 40 ------- 0 3.0 0.0 2 25
r 1.637391 3 2 ack 40 ------- 0 3.0 0.0 2 25
+ 1.637391 2 0 ack 40 ------- 0 3.0 0.0 2 25
- 1.637391 2 0 ack 40 ------- 0 3.0 0.0 2 25
- 1.651911 1 2 tcp 1040 ------- 0 1.0 3.1 5 17
r 1.653791 2 0 ack 40 ------- 0 3.0 0.0 2 25
+ 1.653791 0 2 tcp 1040 ------- 0 0.0 3.0 3 26
- 1.653791 0 2 tcp 1040 ------- 0 0.0 3.0 3 26
r 1.661911 1 2 tcp 1040 ------- 0 1.0 3.1 4 14
+ 1.661911 2 3 tcp 1040 ------- 0 1.0 3.1 4 14
- 1.661911 2 3 tcp 1040 ------- 0 1.0 3.1 4 14
r 1.681156 2 3 tcp 1040 ------- 0 1.0 3.1 4 14
+ 1.681156 3 2 ack 40 ------- 0 3.1 1.0 4 27
- 1.681156 3 2 ack 40 ------- 0 3.1 1.0 4 27
r 1.691511 3 2 ack 40 ------- 0 3.1 1.0 4 27
+ 1.691511 2 1 ack 40 ------- 0 3.1 1.0 4 27
- 1.691511 2 1 ack 40 ------- 0 3.1 1.0 4 27
r 1.707911 2 1 ack 40 ------- 0 3.1 1.0 4 27
+ 1.707911 1 2 tcp 1040 ------- 0 1.0 3.1 6 28
- 1.818311 1 2 tcp 1040 ------- 0 1.0 3.1 6 19
r 1.828311 1 2 tcp 1040 ------- 0 1.0 3.1 5 17
+ 1.828311 2 3 tcp 1040 ------- 0 1.0 3.1 5 17
- 1.828311 2 3 tcp 1040 ------- 0 1.0 3.1 5 17
r 1.830191 0 2 tcp 1040 ------- 0 0.0 3.0 3 26
+ 1.830191 2 3 tcp 1040 ------- 0 0.0 3.0 3 26
- 1.837556 2 3 tcp 1040 ------- 0 0.0 3.0 3 26
r 1.847556 2 3 tcp 1040 ------- 0 1.0 3.1 5 17
+ 1.847556 3 2 ack 40 ------- 0 3.1 1.0 5 29
- 1.847556 3 2 ack 40 ------- 0 3.1 1.0 5 29
r 1.8568 2 3 tcp 1040 ------- 0 0.0 3.0 3 26
+ 1.8568 3 2 ack 40 ------- 0 3.0 0.0 3 30
- 1.8568 3 2 ack 40 ------- 0 3.0 0.0 3 30
r 1.857911 3 2 ack 40 ------- 0 3.1 1.0 5 29
+ 1.857911 2 1 ack 40 ------- 0 3.1 1.0 5 29
- 1.857911 2 1 ack 40 ------- 0 3.1 1.0 5 29
r 1.867156 3 2 ack 40 ------- 0 3.0 0.0 3 30
+ 1.867156 2 0 ack 40 ------- 0 3.0 0.0 3 30
- 1.867156 2 0 ack 40 ------- 0 3.0 0.0 3 30
r 1.874311 2 1 ack 40 ------- 0 3.1 1.0 5 29
+ 1.874311 1 2 tcp 1040 ------- 0 1.0 3.1 7 31
r 1.883556 2 0 ack 40 ------- 0 3.0 0.0 3 30
- 1.984711 1 2 tcp 1040 ---A--- 0 1.0 3.1 3 21
r 1.994711 1 2 tcp 1040 ------- 0 1.0 3.1 6 19
+ 1.994711 2 3 tcp 1040 ------- 0 1.0 3.1 6 19
- 1.994711 2 3 tcp 1040 ------- 0 1.0 3.1 6 19
r 2.013956 2 3 tcp 1040 ------- 0 1.0 3.1 6 19
+ 2.013956 3 2 ack 40 ------- 0 3.1 1.0 6 32
- 2.013956 3 2 ack 40 ------- 0 3.1 1.0 6 32
r 2.024311 3 2 ack 40 ------- 0 3.1 1.0 6 32
+ 2.024311 2 1 ack 40 ------- 0 3.1 1.0 6 32
- 2.024311 2 1 ack 40 ------- 0 3.1 1.0 6 32
r 2.040711 2 1 ack 40 ------- 0 3.1 1.0 6 32
+ 2.040711 1 2 tcp 1040 ------- 0 1.0 3.1 8 33
+ 2.040711 1 2 tcp 1040 ------- 0 1.0 3.1 9 34
- 2.151111 1 2 tcp 1040 ------- 0 1.0 3.1 4 23
r 2.161111 1 2 tcp 1040 ---A--- 0 1.0 3.1 3 21
+ 2.161111 2 3 tcp 1040 ---A--- 0 1.0 3.1 3 21
- 2.161111 2 3 tcp 1040 ---A--- 0 1.0 3.1 3 21
r 2.180356 2 3 tcp 1040 ---A--- 0 1.0 3.1 3 21
+ 2.180356 3 2 ack 40 ------- 0 3.1 1.0 6 35
- 2.180356 3 2 ack 40 ------- 0 3.1 1.0 6 35
r 2.190711 3 2 ack 40 ------- 0 3.1 1.0 6 35
+ 2.190711 2 1 ack 40 ------- 0 3.1 1.0 6 35
- 2.190711 2 1 ack 40 ------- 0 3.1 1.0 6 35
r 2.207111 2 1 ack 40 ------- 0 3.1 1.0 6 35
+ 2.207111 1 2 tcp 1040 ------- 0 1.0 3.1 10 36
- 2.317511 1 2 tcp 1040 ------- 0 1.0 3.1 5 24
r 2.327511 1 2 tcp 1040 ------- 0 1.0 3.1 4 23
+ 2.327511 2 3 tcp 1040 ------- 0 1.0 3.1 4 23
- 2.327511 2 3 tcp 1040 ------- 0 1.0 3.1 4 23
r 2.346756 2 3 tcp 1040 ------- 0 1.0 3.1 4 23
+ 2.346756 3 2 ack 40 ------- 0 3.1 1.0 6 37
- 2.346756 3 2 ack 40 ------- 0 3.1 1.0 6 37
r 2.357111 3 2 ack 40 ------- 0 3.1 1.0 6 37
+ 2.357111 2 1 ack 40 ------- 0 3.1 1.0 6 37
- 2.357111 2 1 ack 40 ------- 0 3.1 1.0 6 37
r 2.373511 2 1 ack 40 ------- 0 3.1 1.0 6 37
+ 2.373511 1 2 tcp 1040 ------- 0 1.0 3.1 11 38
+ 2.398436 0 2 tcp 1040 ---A--- 0 0.0 3.0 4 39
- 2.398436 0 2 tcp 1040 ---A--- 0 0.0 3.0 4 39
- 2.483911 1 2 tcp 1040 ------- 0 1.0 3.1 6 28
r 2.493911 1 2 tcp 1040 ------- 0 1.0 3.1 5 24
+ 2.493911 2 3 tcp 1040 ------- 0 1.0 3.1 5 24
- 2.493911 2 3 tcp 1040 ------- 0 1.0 3.1 5 24
r 2.513156 2 3 tcp 1040 ------- 0 1.0 3.1 5 24
+ 2.513156 3 2 ack 40 ------- 0 3.1 1.0 6 40
- 2.513156 3 2 ack 40 ------- 0 3.1 1.0 6 40
r 2.523511 3 2 ack 40 ------- 0 3.1 1.0 6 40
+ 2.523511 2 1 ack 40 ------- 0 3.1 1.0 6 40
- 2.523511 2 1 ack 40 ------- 0 3.1 1.0 6 40
r 2.539911 2 1 ack 40 ------- 0 3.1 1.0 6 40
r 2.574836 0 2 tcp 1040 ---A--- 0 0.0 3.0 4 39
+ 2.574836 2 3 tcp 1040 ---A--- 0 0.0 3.0 4 39
- 2.574836 2 3 tcp 1040 ---A--- 0 0.0 3.0 4 39
r 2.594081 2 3 tcp 1040 ---A--- 0 0.0 3.0 4 39
+ 2.594081 3 2 ack 40 ------- 0 3.0 0.0 4 41
- 2.594081 3 2 ack 40 ------- 0 3.0 0.0 4 41
r 2.604436 3 2 ack 40 ------- 0 3.0 0.0 4 41
+ 2.604436 2 0 ack 40 ------- 0 3.0 0.0 4 41
- 2.604436 2 0 ack 40 ------- 0 3.0 0.0 4 41
r 2.620836 2 0 ack 40 ------- 0 3.0 0.0 4 41
+ 2.620836 0 2 tcp 1040 ------- 0 0.0 3.0 5 42
- 2.620836 0 2 tcp 1040 ------- 0 0.0 3.0 5 42
- 2.650311 1 2 tcp 1040 ------- 0 1.0 3.1 7 31
r 2.660311 1 2 tcp 1040 ------- 0 1.0 3.1 6 28
+ 2.660311 2 3 tcp 1040 ------- 0 1.0 3.1 6 28
- 2.660311 2 3 tcp 1040 ------- 0 1.0 3.1 6 28
r 2.679556 2 3 tcp 1040 ------- 0 1.0 3.1 6 28
+ 2.679556 3 2 ack 40 ------- 0 3.1 1.0 6 43
- 2.679556 3 2 ack 40 ------- 0 3.1 1.0 6 43
r 2.689911 3 2 ack 40 ------- 0 3.1 1.0 6 43
+ 2.689911 2 1 ack 40 ------- 0 3.1 1.0 6 43
- 2.689911 2 1 ack 40 ------- 0 3.1 1.0 6 43
r 2.706311 2 1 ack 40 ------- 0 3.1 1.0 6 43
r 2.797236 0 2 tcp 1040 ------- 0 0.0 3.0 5 42
+ 2.797236 2 3 tcp 1040 ------- 0 0.0 3.0 5 42
- 2.797236 2 3 tcp 1040 ------- 0 0.0 3.0 5 42
r 2.816481 2 3 tcp 1040 ------- 0 0.0 3.0 5 42
+ 2.816481 3 2 ack 40 ------- 0 3.0 0.0 5 44
- 2.816481 3 2 ack 40 ------- 0 3.0 0.0 5 44
- 2.816711 1 2 tcp 1040 ------- 0 1.0 3.1 8 33
r 2.826711 1 2 tcp 1040 ------- 0 1.0 3.1 7 31
+ 2.826711 2 3 tcp 1040 ------- 0 1.0 3.1 7 31
- 2.826711 2 3 tcp 1040 ------- 0 1.0 3.1 7 31
r 2.826836 3 2 ack 40 ------- 0 3.0 0.0 5 44
+ 2.826836 2 0 ack 40 ------- 0 3.0 0.0 5 44
- 2.826836 2 0 ack 40 ------- 0 3.0 0.0 5 44
+ 2.840711 1 2 tcp 1040 ---A--- 0 1.0 3.1 7 45
r 2.843236 2 0 ack 40 ------- 0 3.0 0.0 5 44
r 2.845956 2 3 tcp 1040 ------- 0 1.0 3.1 7 31
+ 2.845956 3 2 ack 40 ------- 0 3.1 1.0 7 46
- 2.845956 3 2 ack 40 ------- 0 3.1 1.0 7 46
r 2.856311 3 2 ack 40 ------- 0 3.1 1.0 7 46
+ 2.856311 2 1 ack 40 ------- 0 3.1 1.0 7 46
- 2.856311 2 1 ack 40 ------- 0 3.1 1.0 7 46
r 2.872711 2 1 ack 40 ------- 0 3.1 1.0 7 46
+ 2.872711 1 2 tcp 1040 ------- 0 1.0 3.1 8 47
+ 2.872711 1 2 tcp 1040 ------- 0 1.0 3.1 9 48
+ 2.879511 0 2 tcp 1040 ------- 0 0.0 3.0 6 49
- 2.879511 0 2 tcp 1040 ------- 0 0.0 3.0 6 49
- 2.983111 1 2 tcp 1040 ------- 0 1.0 3.1 9 34
r 2.993111 1 2 tcp 1040 ------- 0 1.0 3.1 8 33
+ 2.993111 2 3 tcp 1040 ------- 0 1.0 3.1 8 33
- 2.993111 2 3 tcp 1040 ------- 0 1.0 3.1 8 33
r 3.012356 2 3 tcp 1040 ------- 0 1.0 3.1 8 33
+ 3.012356 3 2 ack 40 ------- 0 3.1 1.0 8 50
- 3.012356 3 2 ack 40 ------- 0 3.1 1.0 8 50
r 3.022711 3 2 ack 40 ------- 0 3.1 1.0 8 50
+ 3.022711 2 1 ack 40 ------- 0 3.1 1.0 8 50
- 3.022711 2 1 ack 40 ------- 0 3.1 1.0 8 50
+ 3.038338 0 2 tcp 1040 ------- 0 0.0 3.0 7 51
r 3.039111 2 1 ack 40 ------- 0 3.1 1.0 8 50
+ 3.039111 1 2 tcp 1040 ------- 0 1.0 3.1 10 52
- 3.045911 0 2 tcp 1040 ------- 0 0.0 3.0 7 51
r 3.055911 0 2 tcp 1040 ------- 0 0.0 3.0 6 49
+ 3.055911 2 3 tcp 1040 ------- 0 0.0 3.0 6 49
- 3.055911 2 3 tcp 1040 ------- 0 0.0 3.0 6 49
r 3.075155 2 3 tcp 1040 ------- 0 0.0 3.0 6 49
+ 3.075155 3 2 ack 40 ------- 0 3.0 0.0 6 53
- 3.075155 3 2 ack 40 ------- 0 3.0 0.0 6 53
r 3.085511 3 2 ack 40 ------- 0 3.0 0.0 6 53
+ 3.085511 2 0 ack 40 ------- 0 3.0 0.0 6 53
- 3.085511 2 0 ack 40 ------- 0 3.0 0.0 6 53
r 3.101911 2 0 ack 40 ------- 0 3.0 0.0 6 53
- 3.149511 1 2 tcp 1040 ------- 0 1.0 3.1 10 36
r 3.159511 1 2 tcp 1040 ------- 0 1.0 3.1 9 34
+ 3.159511 2 3 tcp 1040 ------- 0 1.0 3.1 9 34
- 3.159511 2 3 tcp 1040 ------- 0 1.0 3.1 9 34
r 3.178756 2 3 tcp 1040 ------- 0 1.0 3.1 9 34
+ 3.178756 3 2 ack 40 ------- 0 3.1 1.0 9 54
- 3.178756 3 2 ack 40 ------- 0 3.1 1.0 9 54
r 3.189111 3 2 ack 40 ------- 0 3.1 1.0 9 54
+ 3.189111 2 1 ack 40 ------- 0 3.1 1.0 9 54
- 3.189111 2 1 ack 40 ------- 0 3.1 1.0 9 54
r 3.205511 2 1 ack 40 ------- 0 3.1 1.0 9 54
+ 3.205511 1 2 tcp 1040 ------- 0 1.0 3.1 11 55
r 3.222311 0 2 tcp 1040 ------- 0 0.0 3.0 7 51
+ 3.222311 2 3 tcp 1040 ------- 0 0.0 3.0 7 51
- 3.222311 2 3 tcp 1040 ------- 0 0.0 3.0 7 51
r 3.241555 2 3 tcp 1040 ------- 0 0.0 3.0 7 51
+ 3.241555 3 2 ack 40 ------- 0 3.0 0.0 7 56
- 3.241555 3 2 ack 40 ------- 0 3.0 0.0 7 56
r 3.251911 3 2 ack 40 ------- 0 3.0 0.0 7 56
+ 3.251911 2 0 ack 40 ------- 0 3.0 0.0 7 56
- 3.251911 2 0 ack 40 ------- 0 3.0 0.0 7 56
r 3.268311 2 0 ack 40 ------- 0 3.0 0.0 7 56
- 3.315911 1 2 tcp 1040 ------- 0 1.0 3.1 11 38
r 3.325911 1 2 tcp 1040 ------- 0 1.0 3.1 10 36
+ 3.325911 2 3 tcp 1040 ------- 0 1.0 3.1 10 36
- 3.325911 2 3 tcp 1040 ------- 0 1.0 3.1 10 36
r 3.345156 2 3 tcp 1040 ------- 0 1.0 3.1 10 36
+ 3.345156 3 2 ack 40 ------- 0 3.1 1.0 10 57
- 3.345156 3 2 ack 40 ------- 0 3.1 1.0 10 57
r 3.355511 3 2 ack 40 ------- 0 3.1 1.0 10 57
+ 3.355511 2 1 ack 40 ------- 0 3.1 1.0 10 57
- 3.355511 2 1 ack 40 ------- 0 3.1 1.0 10 57
r 3.371911 2 1 ack 40 ------- 0 3.1 1.0 10 57
+ 3.371911 1 2 tcp 1040 ------- 0 1.0 3.1 12 58
+ 3.371911 1 2 tcp 1040 ------- 0 1.0 3.1 13 59
- 3.482311 1 2 tcp 1040 ---A--- 0 1.0 3.1 7 45
r 3.492311 1 2 tcp 1040 ------- 0 1.0 3.1 11 38
+ 3.492311 2 3 tcp 1040 ------- 0 1.0 3.1 11 38
- 3.492311 2 3 tcp 1040 ------- 0 1.0 3.1 11 38
r 3.511556 2 3 tcp 1040 ------- 0 1.0 3.1 11 38
+ 3.511556 3 2 ack 40 ------- 0 3.1 1.0 11 60
- 3.511556 3 2 ack 40 ------- 0 3.1 1.0 11 60
r 3.521911 3 2 ack 40 ------- 0 3.1 1.0 11 60
+ 3.521911 2 1 ack 40 ------- 0 3.1 1.0 11 60
- 3.521911 2 1 ack 40 ------- 0 3.1 1.0 11 60
r 3.538311 2 1 ack 40 ------- 0 3.1 1.0 11 60
+ 3.538311 1 2 tcp 1040 ------- 0 1.0 3.1 14 61
- 3.648711 1 2 tcp 1040 ------- 0 1.0 3.1 8 47
r 3.658711 1 2 tcp 1040 ---A--- 0 1.0 3.1 7 45
+ 3.658711 2 3 tcp 1040 ---A--- 0 1.0 3.1 7 45
- 3.658711 2 3 tcp 1040 ---A--- 0 1.0 3.1 7 45
r 3.677956 2 3 tcp 1040 ---A--- 0 1.0 3.1 7 45
+ 3.677956 3 2 ack 40 ------- 0 3.1 1.0 11 62
- 3.677956 3 2 ack 40 ------- 0 3.1 1.0 11 62
r 3.688311 3 2 ack 40 ------- 0 3.1 1.0 11 62
+ 3.688311 2 1 ack 40 ------- 0 3.1 1.0 11 62
- 3.688311 2 1 ack 40 ------- 0 3.1 1.0 11 62
r 3.704711 2 1 ack 40 ------- 0 3.1 1.0 11 62
+ 3.704711 1 2 tcp 1040 ------- 0 1.0 3.1 15 63
- 3.815111 1 2 tcp 1040 ------- 0 1.0 3.1 9 48
r 3.825111 1 2 tcp 1040 ------- 0 1.0 3.1 8 47
+ 3.825111 2 3 tcp 1040 ------- 0 1.0 3.1 8 47
- 3.825111 2 3 tcp 1040 ------- 0 1.0 3.1 8 47
r 3.844356 2 3 tcp 1040 ------- 0 1.0 3.1 8 47
+ 3.844356 3 2 ack 40 ------- 0 3.1 1.0 11 64
- 3.844356 3 2 ack 40 ------- 0 3.1 1.0 11 64
r 3.854711 3 2 ack 40 ------- 0 3.1 1.0 11 64
+ 3.854711 2 1 ack 40 ------- 0 3.1 1.0 11 64
- 3.854711 2 1 ack 40 ------- 0 3.1 1.0 11 64
r 3.871111 2 1 ack 40 ------- 0 3.1 1.0 11 64
+ 3.871111 1 2 tcp 1040 ------- 0 1.0 3.1 16 65
+ 3.957527 0 2 tcp 1040 ---A--- 0 0.0 3.0 8 66
- 3.957527 0 2 tcp 1040 ---A--- 0 0.0 3.0 8 66
- 3.981511 1 2 tcp 1040 ------- 0 1.0 3.1 10 52
r 3.991511 1 2 tcp 1040 ------- 0 1.0 3.1 9 48
+ 3.991511 2 3 tcp 1040 ------- 0 1.0 3.1 9 48
- 3.991511 2 3 tcp 1040 ------- 0 1.0 3.1 9 48
r 4.010756 2 3 tcp 1040 ------- 0 1.0 3.1 9 48
+ 4.010756 3 2 ack 40 ------- 0 3.1 1.0 11 67
- 4.010756 3 2 ack 40 ------- 0 3.1 1.0 11 67
r 4.021111 3 2 ack 40 ------- 0 3.1 1.0 11 67
+ 4.021111 2 1 ack 40 ------- 0 3.1 1.0 11 67
- 4.021111 2 1 ack 40 ------- 0 3.1 1.0 11 67
r 4.037511 2 1 ack 40 ------- 0 3.1 1.0 11 67
r 4.133927 0 2 tcp 1040 ---A--- 0 0.0 3.0 8 66
+ 4.133927 2 3 tcp 1040 ---A--- 0 0.0 3.0 8 66
- 4.133927 2 3 tcp 1040 ---A--- 0 0.0 3.0 8 66
- 4.147911 1 2 tcp 1040 ------- 0 1.0 3.1 11 55
r 4.153172 2 3 tcp 1040 ---A--- 0 0.0 3.0 8 66
+ 4.153172 3 2 ack 40 ------- 0 3.0 0.0 8 68
- 4.153172 3 2 ack 40 ------- 0 3.0 0.0 8 68
r 4.157911 1 2 tcp 1040 ------- 0 1.0 3.1 10 52
+ 4.157911 2 3 tcp 1040 ------- 0 1.0 3.1 10 52
- 4.157911 2 3 tcp 1040 ------- 0 1.0 3.1 10 52
r 4.163527 3 2 ack 40 ------- 0 3.0 0.0 8 68
+ 4.163527 2 0 ack 40 ------- 0 3.0 0.0 8 68
- 4.163527 2 0 ack 40 ------- 0 3.0 0.0 8 68
r 4.177156 2 3 tcp 1040 ------- 0 1.0 3.1 10 52
+ 4.177156 3 2 ack 40 ------- 0 3.1 1.0 11 69
- 4.177156 3 2 ack 40 ------- 0 3.1 1.0 11 69
r 4.179927 2 0 ack 40 ------- 0 3.0 0.0 8 68
+ 4.179927 0 2 tcp 1040 ------- 0 0.0 3.0 9 70
- 4.179927 0 2 tcp 1040 ------- 0 0.0 3.0 9 70
+ 4.179927 0 2 tcp 1040 ------- 0 0.0 3.0 10 71
r 4.187511 3 2 ack 40 ------- 0 3.1 1.0 11 69
+ 4.187511 2 1 ack 40 ------- 0 3.1 1.0 11 69
- 4.187511 2 1 ack 40 ------- 0 3.1 1.0 11 69
r 4.203911 2 1 ack 40 ------- 0 3.1 1.0 11 69
- 4.314311 1 2 tcp 1040 ------- 0 1.0 3.1 12 58
r 4.324311 1 2 tcp 1040 ------- 0 1.0 3.1 11 55
+ 4.324311 2 3 tcp 1040 ------- 0 1.0 3.1 11 55
- 4.324311 2 3 tcp 1040 ------- 0 1.0 3.1 11 55
r 4.343556 2 3 tcp 1040 ------- 0 1.0 3.1 11 55
+ 4.343556 3 2 ack 40 ------- 0 3.1 1.0 11 72
- 4.343556 3 2 ack 40 ------- 0 3.1 1.0 11 72
- 4.346327 0 2 tcp 1040 ------- 0 0.0 3.0 10 71
r 4.353911 3 2 ack 40 ------- 0 3.1 1.0 11 72
+ 4.353911 2 1 ack 40 ------- 0 3.1 1.0 11 72
- 4.353911 2 1 ack 40 ------- 0 3.1 1.0 11 72
r 4.356327 0 2 tcp 1040 ------- 0 0.0 3.0 9 70
+ 4.356327 2 3 tcp 1040 ------- 0 0.0 3.0 9 70
- 4.356327 2 3 tcp 1040 ------- 0 0.0 3.0 9 70
r 4.370311 2 1 ack 40 ------- 0 3.1 1.0 11 72
r 4.375572 2 3 tcp 1040 ------- 0 0.0 3.0 9 70
+ 4.375572 3 2 ack 40 ------- 0 3.0 0.0 9 73
- 4.375572 3 2 ack 40 ------- 0 3.0 0.0 9 73
r 4.385927 3 2 ack 40 ------- 0 3.0 0.0 9 73
+ 4.385927 2 0 ack 40 ------- 0 3.0 0.0 9 73
- 4.385927 2 0 ack 40 ------- 0 3.0 0.0 9 73
r 4.402327 2 0 ack 40 ------- 0 3.0 0.0 9 73
+ 4.418442 0 2 tcp 1040 ------- 0 0.0 3.0 11 74
- 4.480711 1 2 tcp 1040 ------- 0 1.0 3.1 13 59
r 4.490711 1 2 tcp 1040 ------- 0 1.0 3.1 12 58
+ 4.490711 2 3 tcp 1040 ------- 0 1.0 3.1 12 58
- 4.490711 2 3 tcp 1040 ------- 0 1.0 3.1 12 58
r 4.509956 2 3 tcp 1040 ------- 0 1.0 3.1 12 58
+ 4.509956 3 2 ack 40 ------- 0 3.1 1.0 12 75
- 4.509956 3 2 ack 40 ------- 0 3.1 1.0 12 75
- 4.512727 0 2 tcp 1040 ------- 0 0.0 3.0 11 74
r 4.520311 3 2 ack 40 ------- 0 3.1 1.0 12 75
+ 4.520311 2 1 ack 40 ------- 0 3.1 1.0 12 75
- 4.520311 2 1 ack 40 ------- 0 3.1 1.0 12 75
r 4.522727 0 2 tcp 1040 ------- 0 0.0 3.0 10 71
+ 4.522727 2 3 tcp 1040 ------- 0 0.0 3.0 10 71
- 4.522727 2 3 tcp 1040 ------- 0 0.0 3.0 10 71
r 4.536711 2 1 ack 40 ------- 0 3.1 1.0 12 75
r 4.541972 2 3 tcp 1040 ------- 0 0.0 3.0 10 71
+ 4.541972 3 2 ack 40 ------- 0 3.0 0.0 10 76
- 4.541972 3 2 ack 40 ------- 0 3.0 0.0 10 76
r 4.552327 3 2 ack 40 ------- 0 3.0 0.0 10 76
+ 4.552327 2 0 ack 40 ------- 0 3.0 0.0 10 76
- 4.552327 2 0 ack 40 ------- 0 3.0 0.0 10 76
r 4.568727 2 0 ack 40 ------- 0 3.0 0.0 10 76
+ 4.568727 0 2 tcp 1040 ------- 0 0.0 3.0 12 77
- 4.647111 1 2 tcp 1040 ------- 0 1.0 3.1 14 61
r 4.657111 1 2 tcp 1040 ------- 0 1.0 3.1 13 59
+ 4.657111 2 3 tcp 1040 ------- 0 1.0 3.1 13 59
- 4.657111 2 3 tcp 1040 ------- 0 1.0 3.1 13 59
r 4.676356 2 3 tcp 1040 ------- 0 1.0 3.1 13 59
+ 4.676356 3 2 ack 40 ------- 0 3.1 1.0 13 78
- 4.676356 3 2 ack 40 ------- 0 3.1 1.0 13 78
- 4.679127 0 2 tcp 1040 ------- 0 0.0 3.0 12 77
r 4.686711 3 2 ack 40 ------- 0 3.1 1.0 13 78
+ 4.686711 2 1 ack 40 ------- 0 3.1 1.0 13 78
- 4.686711 2 1 ack 40 ------- 0 3.1 1.0 13 78
r 4.689127 0 2 tcp 1040 ------- 0 0.0 3.0 11 74
+ 4.689127 2 3 tcp 1040 ------- 0 0.0 3.0 11 74
- 4.689127 2 3 tcp 1040 ------- 0 0.0 3.0 11 74
r 4.703111 2 1 ack 40 ------- 0 3.1 1.0 13 78
+ 4.703111 1 2 tcp 1040 ------- 0 1.0 3.1 17 79
r 4.708372 2 3 tcp 1040 ------- 0 0.0 3.0 11 74
+ 4.708372 3 2 ack 40 ------- 0 3.0 0.0 11 80
- 4.708372 3 2 ack 40 ------- 0 3.0 0.0 11 80
r 4.718727 3 2 ack 40 ------- 0 3.0 0.0 11 80
+ 4.718727 2 0 ack 40 ------- 0 3.0 0.0 11 80
- 4.718727 2 0 ack 40 ------- 0 3.0 0.0 11 80
r 4.735127 2 0 ack 40 ------- 0 3.0 0.0 11 80
- 4.813511 1 2 tcp 1040 ------- 0 1.0 3.1 15 63
r 4.823511 1 2 tcp 1040 ------- 0 1.0 3.1 14 61
+ 4.823511 2 3 tcp 1040 ------- 0 1.0 3.1 14 61
- 4.823511 2 3 tcp 1040 ------- 0 1.0 3.1 14 61
r 4.842756 2 3 tcp 1040 ------- 0 1.0 3.1 14 61
+ 4.842756 3 2 ack 40 ------- 0 3.1 1.0 14 81
- 4.842756 3 2 ack 40 ------- 0 3.1 1.0 14 81
r 4.853111 3 2 ack 40 ------- 0 3.1 1.0 14 81
+ 4.853111 2 1 ack 40 ------- 0 3.1 1.0 14 81
- 4.853111 2 1 ack 40 ------- 0 3.1 1.0 14 81
r 4.855527 0 2 tcp 1040 ------- 0 0.0 3.0 12 77
+ 4.855527 2 3 tcp 1040 ------- 0 0.0 3.0 12 77
- 4.855527 2 3 tcp 1040 ------- 0 0.0 3.0 12 77
r 4.869511 2 1 ack 40 ------- 0 3.1 1.0 14 81
+ 4.869511 1 2 tcp 1040 ------- 0 1.0 3.1 18 82
r 4.874772 2 3 tcp 1040 ------- 0 0.0 3.0 12 77
+ 4.874772 3 2 ack 40 ------- 0 3.0 0.0 12 83
- 4.874772 3 2 ack 40 ------- 0 3.0 0.0 12 83
r 4.885127 3 2 ack 40 ------- 0 3.0 0.0 12 83
+ 4.885127 2 0 ack 40 ------- 0 3.0 0.0 12 83
- 4.885127 2 0 ack 40 ------- 0 3.0 0.0 12 83
r 4.901527 2 0 ack 40 ------- 0 3.0 0.0 12 83
- 4.979911 1 2 tcp 1040 ------- 0 1.0 3.1 16 65
r 4.989911 1 2 tcp 1040 ------- 0 1.0 3.1 15 63
+ 4.989911 2 3 tcp 1040 ------- 0 1.0 3.1 15 63
- 4.989911 2 3 tcp 1040 ------- 0 1.0 3.1 15 63
r 5.009156 2 3 tcp 1040 ------- 0 1.0 3.1 15 63
+ 5.009156 3 2 ack 40 ------- 0 3.1 1.0 15 84
- 5.009156 3 2 ack 40 ------- 0 3.1 1.0 15 84
r 5.019511 3 2 ack 40 ------- 0 3.1 1.0 15 84
+ 5.019511 2 1 ack 40 ------- 0 3.1 1.0 15 84
- 5.019511 2 1 ack 40 ------- 0 3.1 1.0 15 84
r 5.035911 2 1 ack 40 ------- 0 3.1 1.0 15 84
+ 5.035911 1 2 tcp 1040 ------- 0 1.0 3.1 19 85
- 5.146311 1 2 tcp 1040 ------- 0 1.0 3.1 17 79
r 5.156311 1 2 tcp 1040 ------- 0 1.0 3.1 16 65
+ 5.156311 2 3 tcp 1040 ------- 0 1.0 3.1 16 65
- 5.156311 2 3 tcp 1040 ------- 0 1.0 3.1 16 65
r 5.175556 2 3 tcp 1040 ------- 0 1.0 3.1 16 65
+ 5.175556 3 2 ack 40 ------- 0 3.1 1.0 16 86
- 5.175556 3 2 ack 40 ------- 0 3.1 1.0 16 86
r 5.185911 3 2 ack 40 ------- 0 3.1 1.0 16 86
+ 5.185911 2 1 ack 40 ------- 0 3.1 1.0 16 86
- 5.185911 2 1 ack 40 ------- 0 3.1 1.0 16 86
r 5.202311 2 1 ack 40 ------- 0 3.1 1.0 16 86
+ 5.202311 1 2 tcp 1040 ------- 0 1.0 3.1 20 87
- 5.312711 1 2 tcp 1040 ------- 0 1.0 3.1 18 82
r 5.322711 1 2 tcp 1040 ------- 0 1.0 3.1 17 79
+ 5.322711 2 3 tcp 1040 ------- 0 1.0 3.1 17 79
- 5.322711 2 3 tcp 1040 ------- 0 1.0 3.1 17 79
r 5.341956 2 3 tcp 1040 ------- 0 1.0 3.1 17 79
+ 5.341956 3 2 ack 40 ------- 0 3.1 1.0 17 88
- 5.341956 3 2 ack 40 ------- 0 3.1 1.0 17 88
r 5.352311 3 2 ack 40 ------- 0 3.1 1.0 17 88
+ 5.352311 2 1 ack 40 ------- 0 3.1 1.0 17 88
- 5.352311 2 1 ack 40 ------- 0 3.1 1.0 17 88
r 5.368711 2 1 ack 40 ------- 0 3.1 1.0 17 88
+ 5.368711 1 2 tcp 1040 ------- 0 1.0 3.1 21 89
- 5.479111 1 2 tcp 1040 ------- 0 1.0 3.1 19 85
r 5.489111 1 2 tcp 1040 ------- 0 1.0 3.1 18 82
+ 5.489111 2 3 tcp 1040 ------- 0 1.0 3.1 18 82
- 5.489111 2 3 tcp 1040 ------- 0 1.0 3.1 18 82
r 5.508356 2 3 tcp 1040 ------- 0 1.0 3.1 18 82
+ 5.508356 3 2 ack 40 ------- 0 3.1 1.0 18 90
- 5.508356 3 2 ack 40 ------- 0 3.1 1.0 18 90
r 5.518711 3 2 ack 40 ------- 0 3.1 1.0 18 90
+ 5.518711 2 1 ack 40 ------- 0 3.1 1.0 18 90
- 5.518711 2 1 ack 40 ------- 0 3.1 1.0 18 90
+ 5.532844 0 2 tcp 1040 ---A--- 0 0.0 3.0 13 91
- 5.532844 0 2 tcp 1040 ---A--- 0 0.0 3.0 13 91
r 5.535111 2 1 ack 40 ------- 0 3.1 1.0 18 90
+ 5.535111 1 2 tcp 1040 ------- 0 1.0 3.1 22 92
+ 5.535111 1 2 tcp 1040 ------- 0 1.0 3.1 23 93
- 5.645511 1 2 tcp 1040 ------- 0 1.0 3.1 20 87
r 5.655511 1 2 tcp 1040 ------- 0 1.0 3.1 19 85
+ 5.655511 2 3 tcp 1040 ------- 0 1.0 3.1 19 85
- 5.655511 2 3 tcp 1040 ------- 0 1.0 3.1 19 85
r 5.674756 2 3 tcp 1040 ------- 0 1.0 3.1 19 85
+ 5.674756 3 2 ack 40 ------- 0 3.1 1.0 19 94
- 5.674756 3 2 ack 40 ------- 0 3.1 1.0 19 94
r 5.685111 3 2 ack 40 ------- 0 3.1 1.0 19 94
+ 5.685111 2 1 ack 40 ------- 0 3.1 1.0 19 94
- 5.685111 2 1 ack 40 ------- 0 3.1 1.0 19 94
r 5.701511 2 1 ack 40 ------- 0 3.1 1.0 19 94
+ 5.701511 1 2 tcp 1040 ------- 0 1.0 3.1 24 95
r 5.709244 0 2 tcp 1040 ---A--- 0 0.0 3.0 13 91
+ 5.709244 2 3 tcp 1040 ---A--- 0 0.0 3.0 13 91
- 5.709244 2 3 tcp 1040 ---A--- 0 0.0 3.0 13 91
r 5.728489 2 3 tcp 1040 ---A--- 0 0.0 3.0 13 91
+ 5.728489 3 2 ack 40 ------- 0 3.0 0.0 13 96
- 5.728489 3 2 ack 40 ------- 0 3.0 0.0 13 96
r 5.738844 3 2 ack 40 ------- 0 3.0 0.0 13 96
+ 5.738844 2 0 ack 40 ------- 0 3.0 0.0 13 96
- 5.738844 2 0 ack 40 ------- 0 3.0 0.0 13 96
r 5.755244 2 0 ack 40 ------- 0 3.0 0.0 13 96
+ 5.755244 0 2 tcp 1040 ------- 0 0.0 3.0 14 97
- 5.755244 0 2 tcp 1040 ------- 0 0.0 3.0 14 97
- 5.811911 1 2 tcp 1040 ------- 0 1.0 3.1 21 89
r 5.821911 1 2 tcp 1040 ------- 0 1.0 3.1 20 87
+ 5.821911 2 3 tcp 1040 ------- 0 1.0 3.1 20 87
- 5.821911 2 3 tcp 1040 ------- 0 1.0 3.1 20 87
+ 5.832684 0 2 tcp 1040 ------- 0 0.0 3.0 15 98
r 5.841156 2 3 tcp 1040 ------- 0 1.0 3.1 20 87
+ 5.841156 3 2 ack 40 ------- 0 3.1 1.0 20 99
- 5.841156 3 2 ack 40 ------- 0 3.1 1.0 20 99
r 5.851511 3 2 ack 40 ------- 0 3.1 1.0 20 99
+ 5.851511 2 1 ack 40 ------- 0 3.1 1.0 20 99
- 5.851511 2 1 ack 40 ------- 0 3.1 1.0 20 99
r 5.867911 2 1 ack 40 ------- 0 3.1 1.0 20 99
+ 5.867911 1 2 tcp 1040 ------- 0 1.0 3.1 25 100
- 5.921644 0 2 tcp 1040 ------- 0 0.0 3.0 15 98
r 5.931644 0 2 tcp 1040 ------- 0 0.0 3.0 14 97
+ 5.931644 2 3 tcp 1040 ------- 0 0.0 3.0 14 97
- 5.931644 2 3 tcp 1040 ------- 0 0.0 3.0 14 97
r 5.950889 2 3 tcp 1040 ------- 0 0.0 3.0 14 97
+ 5.950889 3 2 ack 40 ------- 0 3.0 0.0 14 101
- 5.950889 3 2 ack 40 ------- 0 3.0 0.0 14 101
r 5.961244 3 2 ack 40 ------- 0 3.0 0.0 14 101
+ 5.961244 2 0 ack 40 ------- 0 3.0 0.0 14 101
- 5.961244 2 0 ack 40 ------- 0 3.0 0.0 14 101
r 5.977644 2 0 ack 40 ------- 0 3.0 0.0 14 101
+ 5.977644 0 2 tcp 1040 ------- 0 0.0 3.0 16 102
- 5.978311 1 2 tcp 1040 ------- 0 1.0 3.1 22 92
r 5.988311 1 2 tcp 1040 ------- 0 1.0 3.1 21 89
+ 5.988311 2 3 tcp 1040 ------- 0 1.0 3.1 21 89
- 5.988311 2 3 tcp 1040 ------- 0 1.0 3.1 21 89
r 6.007556 2 3 tcp 1040 ------- 0 1.0 3.1 21 89
+ 6.007556 3 2 ack 40 ------- 0 3.1 1.0 21 103
- 6.007556 3 2 ack 40 ------- 0 3.1 1.0 21 103
r 6.017911 3 2 ack 40 ------- 0 3.1 1.0 21 103
+ 6.017911 2 1 ack 40 ------- 0 3.1 1.0 21 103
- 6.017911 2 1 ack 40 ------- 0 3.1 1.0 21 103
r 6.034311 2 1 ack 40 ------- 0 3.1 1.0 21 103
+ 6.034311 1 2 tcp 1040 ------- 0 1.0 3.1 26 104
- 6.088044 0 2 tcp 1040 ------- 0 0.0 3.0 16 102
r 6.098044 0 2 tcp 1040 ------- 0 0.0 3.0 15 98
+ 6.098044 2 3 tcp 1040 ------- 0 0.0 3.0 15 98
- 6.098044 2 3 tcp 1040 ------- 0 0.0 3.0 15 98
r 6.117289 2 3 tcp 1040 ------- 0 0.0 3.0 15 98
+ 6.117289 3 2 ack 40 ------- 0 3.0 0.0 15 105
- 6.117289 3 2 ack 40 ------- 0 3.0 0.0 15 105
r 6.127644 3 2 ack 40 ------- 0 3.0 0.0 15 105
+ 6.127644 2 0 ack 40 ------- 0 3.0 0.0 15 105
- 6.127644 2 0 ack 40 ------- 0 3.0 0.0 15 105
r 6.144044 2 0 ack 40 ------- 0 3.0 0.0 15 105
- 6.144711 1 2 tcp 1040 ------- 0 1.0 3.1 23 93
r 6.154711 1 2 tcp 1040 ------- 0 1.0 3.1 22 92
+ 6.154711 2 3 tcp 1040 ------- 0 1.0 3.1 22 92
- 6.154711 2 3 tcp 1040 ------- 0 1.0 3.1 22 92
r 6.173956 2 3 tcp 1040 ------- 0 1.0 3.1 22 92
+ 6.173956 3 2 ack 40 ------- 0 3.1 1.0 22 106
- 6.173956 3 2 ack 40 ------- 0 3.1 1.0 22 106
r 6.184311 3 2 ack 40 ------- 0 3.1 1.0 22 106
+ 6.184311 2 1 ack 40 ------- 0 3.1 1.0 22 106
- 6.184311 2 1 ack 40 ------- 0 3.1 1.0 22 106
r 6.200711 2 1 ack 40 ------- 0 3.1 1.0 22 106
+ 6.200711 1 2 tcp 1040 ------- 0 1.0 3.1 27 107
r 6.264444 0 2 tcp 1040 ------- 0 0.0 3.0 16 102
+ 6.264444 2 3 tcp 1040 ------- 0 0.0 3.0 16 102
- 6.264444 2 3 tcp 1040 ------- 0 0.0 3.0 16 102
r 6.283689 2 3 tcp 1040 ------- 0 0.0 3.0 16 102
+ 6.283689 3 2 ack 40 ------- 0 3.0 0.0 16 108
- 6.283689 3 2 ack 40 ------- 0 3.0 0.0 16 108
r 6.294044 3 2 ack 40 ------- 0 3.0 0.0 16 108
+ 6.294044 2 0 ack 40 ------- 0 3.0 0.0 16 108
- 6.294044 2 0 ack 40 ------- 0 3.0 0.0 16 108
r 6.310444 2 0 ack 40 ------- 0 3.0 0.0 16 108
- 6.311111 1 2 tcp 1040 ------- 0 1.0 3.1 24 95
r 6.321111 1 2 tcp 1040 ------- 0 1.0 3.1 23 93
+ 6.321111 2 3 tcp 1040 ------- 0 1.0 3.1 23 93
- 6.321111 2 3 tcp 1040 ------- 0 1.0 3.1 23 93
r 6.340356 2 3 tcp 1040 ------- 0 1.0 3.1 23 93
+ 6.340356 3 2 ack 40 ------- 0 3.1 1.0 23 109
- 6.340356 3 2 ack 40 ------- 0 3.1 1.0 23 109
r 6.350711 3 2 ack 40 ------- 0 3.1 1.0 23 109
+ 6.350711 2 1 ack 40 ------- 0 3.1 1.0 23 109
- 6.350711 2 1 ack 40 ------- 0 3.1 1.0 23 109
r 6.367111 2 1 ack 40 ------- 0 3.1 1.0 23 109
+ 6.367111 1 2 tcp 1040 ------- 0 1.0 3.1 28 110
+ 6.367111 1 2 tcp 1040 ------- 0 1.0 3.1 29 111
- 6.477511 1 2 tcp 1040 ------- 0 1.0 3.1 25 100
r 6.487511 1 2 tcp 1040 ------- 0 1.0 3.1 24 95
+ 6.487511 2 3 tcp 1040 ------- 0 1.0 3.1 24 95